 Q-Chem 5.4, Q-Chem, Inc., Pleasanton, CA (2021)
 Q-Chem 5.4.1 for Intel X86 EM64T Linux

User input:
--------------------------------------------------------------
$molecule
0 2
C        -0.9436581337    0.0860394391    0.6234710336
C        -2.4056802964    0.3902049849    0.7805805413
O        -2.8737847661    1.4452939148   -0.0428781804
C        -0.1316597216    0.7348064439   -0.2066019563
C         1.3415439045    0.4335822348   -0.2649963011
O         1.8868343179    0.6330994534   -1.5664206153
C         1.6258658808   -1.0033300086    0.1154062341
O         3.0564473070   -1.1629020049    0.3872790507
O         3.4140570656   -0.5849732868    1.4986751960
C         0.8056876349   -1.4898680213    1.2682546238
C        -0.4084578730   -0.9923546872    1.4743320918
H        -2.5999091882    0.6904718219    1.8115391260
H        -2.9811320352   -0.5233354863    0.6020676084
H        -2.7926376056    1.1696326153   -0.9626230012
H        -0.4786145655    1.5625807519   -0.8124799326
H         1.8595916080    1.0833454942    0.4512619328
H         1.8534259002    1.5750753880   -1.7666839295
H         1.2037628140   -2.3063723506    1.8553830285
H        -1.0390528941   -1.3888852290    2.2603867800
H         1.4883929464   -1.6499345671   -0.7551508307
$end

$rem
BASIS = 6-311++G(2df,2p)
GUI = 2
JOB_TYPE = Frequency
METHOD = wB97M-V
SOLVENT_METHOD = SMD
SCF_ALGORITHM = DIIS_GDM
MAX_SCF_CYCLES = 400
SCF_CONVERGENCE = 7
THRESH = 12
UNRESTRICTED = 1
SYMMETRY_IGNORE = 1
$end
--------------------------------------------------------------

   24    -572.8980221851      3.47e-08  Convergence criterion met
 Total energy in the final basis set =     -572.8930982036
   21    -572.8980210008      9.23e-08  Convergence criterion met
 Total energy in the final basis set =     -572.8930970497
   21    -572.8980210285      8.97e-08  Convergence criterion met
 Total energy in the final basis set =     -572.8930970136
   21    -572.8980213346      9.05e-08  Convergence criterion met
 Total energy in the final basis set =     -572.8930973611
   21    -572.8980214448      9.42e-08  Convergence criterion met
 Total energy in the final basis set =     -572.8930974539
   21    -572.8980212227      9.08e-08  Convergence criterion met
 Total energy in the final basis set =     -572.8930973617
   21    -572.8980214866      8.63e-08  Convergence criterion met
 Total energy in the final basis set =     -572.8930973824
   21    -572.8980194292      9.10e-08  Convergence criterion met
 Total energy in the final basis set =     -572.8930978508
   21    -572.8980215861      9.34e-08  Convergence criterion met
 Total energy in the final basis set =     -572.8930978305
   21    -572.8980221713      9.05e-08  Convergence criterion met
 Total energy in the final basis set =     -572.8930980938
   21    -572.8980219738      9.11e-08  Convergence criterion met
 Total energy in the final basis set =     -572.8930980873
   21    -572.8980217219      9.12e-08  Convergence criterion met
 Total energy in the final basis set =     -572.8930979116
   21    -572.8980221057      9.17e-08  Convergence criterion met
 Total energy in the final basis set =     -572.8930979517
   21    -572.8980213968      9.05e-08  Convergence criterion met
 Total energy in the final basis set =     -572.8930978204
   21    -572.8980221525      9.25e-08  Convergence criterion met
 Total energy in the final basis set =     -572.8930977644

                    Orbital Energies (a.u.)
 --------------------------------------------------------------

 Alpha MOs
 -- Occupied --
-19.4646 -19.4173 -19.3430 -19.3395 -10.4140 -10.4074 -10.3891 -10.3565
-10.3544 -10.3523 -10.3419  -1.3452  -1.1653  -1.1592  -1.0262  -0.9722
 -0.8845  -0.8703  -0.8018  -0.7462  -0.7164  -0.6575  -0.6522  -0.6368
 -0.6318  -0.6131  -0.5952  -0.5758  -0.5548  -0.5382  -0.5344  -0.5151
 -0.4975  -0.4739  -0.4656  -0.4461  -0.4185  -0.4068  -0.3986  -0.3920
 -0.3887  -0.3203

 Beta MOs
 -- Occupied --
-19.4541 -19.3988 -19.3430 -19.3395 -10.4144 -10.4071 -10.3891 -10.3565
-10.3541 -10.3523 -10.3419  -1.3189  -1.1650  -1.1592  -1.0049  -0.9621
 -0.8802  -0.8677  -0.7981  -0.7424  -0.7125  -0.6537  -0.6450  -0.6307
 -0.6207  -0.5885  -0.5848  -0.5703  -0.5441  -0.5359  -0.5150  -0.5108
 -0.4941  -0.4698  -0.4632  -0.4350  -0.4177  -0.3981  -0.3902  -0.3862
 -0.3203

          Ground-State Mulliken Net Atomic Charges

     Atom                 Charge (a.u.)    Spin (a.u.)
  --------------------------------------------------------
      1 C                     0.386249       0.004813
      2 C                    -0.407883       0.000015
      3 O                    -0.447285      -0.000020
      4 C                    -0.501790      -0.003366
      5 C                    -0.255225       0.007976
      6 O                    -0.422352       0.002363
      7 C                    -0.204154      -0.003504
      8 O                     0.072254       0.315239
      9 O                    -0.220711       0.665948
     10 C                     0.023663       0.016942
     11 C                    -0.523727      -0.006988
     12 H                     0.215254       0.000188
     13 H                     0.230790       0.000079
     14 H                     0.334282       0.000012
     15 H                     0.264937       0.000515
     16 H                     0.250436      -0.002481
     17 H                     0.337930       0.000076
     18 H                     0.319005      -0.000434
     19 H                     0.294645       0.000619
     20 H                     0.253681       0.002009
  --------------------------------------------------------
  Sum of atomic charges =    -0.000000

                    Cartesian Multipole Moments
 -----------------------------------------------------------------
    Charge (ESU x 10^10)
                -0.0000
    Dipole Moment (Debye)
         X      -3.7963      Y      -0.5637      Z      -0.8866
       Tot       3.9390
    Quadrupole Moments (Debye-Ang)
        XX     -83.8232     XY      10.3977     YY     -61.1318
        XZ      -3.0970     YZ      -6.0792     ZZ     -64.4476

             Standard Nuclear Orientation (Angstroms)
    I     Atom           X                Y                Z
 ----------------------------------------------------------------
    1      C      -0.9436581337     0.0860394391     0.6234710336
    2      C      -2.4056802964     0.3902049849     0.7805805413
    3      O      -2.8737847661     1.4452939148    -0.0428781804
    4      C      -0.1316597216     0.7348064439    -0.2066019563
    5      C       1.3415439045     0.4335822348    -0.2649963011
    6      O       1.8868343179     0.6330994534    -1.5664206153
    7      C       1.6258658808    -1.0033300086     0.1154062341
    8      O       3.0564473070    -1.1629020049     0.3872790507
    9      O       3.4140570656    -0.5849732868     1.4986751960
   10      C       0.8056876349    -1.4898680213     1.2682546238
   11      C      -0.4084578730    -0.9923546872     1.4743320918
   12      H      -2.5999091882     0.6904718219     1.8115391260
   13      H      -2.9811320352    -0.5233354863     0.6020676084
   14      H      -2.7926376056     1.1696326153    -0.9626230012
   15      H      -0.4786145655     1.5625807519    -0.8124799326
   16      H       1.8595916080     1.0833454942     0.4512619328
   17      H       1.8534259002     1.5750753880    -1.7666839295
   18      H       1.2037628140    -2.3063723506     1.8553830285
   19      H      -1.0390528941    -1.3888852290     2.2603867800
   20      H       1.4883929464    -1.6499345671    -0.7551508307
 ----------------------------------------------------------------

 Frequency:        44.99                  95.56                 112.69
 Force Cnst:      0.0081                 0.0286                 0.0292
 Red. Mass:       6.7785                 5.3239                 3.9002
 IR Intens:        4.683                  2.686                  9.030
 Frequency:       146.87                 187.80                 214.44
 Force Cnst:      0.0499                 0.1016                 0.1106
 Red. Mass:       3.9271                 4.8911                 4.0830
 IR Intens:        1.697                 28.895                 18.544
 Frequency:       236.57                 283.08                 322.45
 Force Cnst:      0.0381                 0.3266                 0.2683
 Red. Mass:       1.1545                 6.9182                 4.3801
 IR Intens:      189.711                 11.763                  3.253
 Frequency:       368.72                 379.99                 437.34
 Force Cnst:      0.1274                 0.1612                 0.4784
 Red. Mass:       1.5908                 1.8947                 4.2449
 IR Intens:       77.494                160.263                 11.422
 Frequency:       479.66                 500.45                 561.12
 Force Cnst:      0.7274                 0.5851                 0.5398
 Red. Mass:       5.3658                 3.9650                 2.9097
 IR Intens:       19.410                 52.372                 18.131
 Frequency:       592.02                 677.04                 740.24
 Force Cnst:      1.0843                 1.1815                 1.2877
 Red. Mass:       5.2508                 4.3749                 3.9886
 IR Intens:        1.160                  4.516                 18.701
 Frequency:       763.96                 831.07                 905.04
 Force Cnst:      0.5747                 0.6018                 1.5657
 Red. Mass:       1.6712                 1.4788                 3.2444
 IR Intens:       45.033                 64.263                 15.267
 Frequency:       972.15                1006.04                1013.48
 Force Cnst:      2.1523                 1.2095                 0.9806
 Red. Mass:       3.8653                 2.0283                 1.6204
 IR Intens:       53.788                  8.038                 43.928
 Frequency:      1022.78                1052.53                1079.01
 Force Cnst:      1.0020                 2.3099                 1.7626
 Red. Mass:       1.6257                 3.5390                 2.5695
 IR Intens:        3.004                159.672                 44.897
 Frequency:      1132.36                1137.21                1175.42
 Force Cnst:      1.4614                 2.5300                 0.9214
 Red. Mass:       1.9344                 3.3204                 1.1319
 IR Intens:       91.328                105.434                 10.601
 Frequency:      1199.49                1223.34                1229.08
 Force Cnst:      1.6688                 1.4947                 1.2033
 Red. Mass:       1.9686                 1.6952                 1.3520
 IR Intens:       65.559                  6.449                 13.478
 Frequency:      1238.08                1294.77                1321.80
 Force Cnst:      1.8712                 1.3424                 1.6861
 Red. Mass:       2.0719                 1.3591                 1.6380
 IR Intens:       22.229                  3.621                 96.334
 Frequency:      1341.57                1362.00                1384.78
 Force Cnst:      1.4463                 1.7471                 1.3556
 Red. Mass:       1.3639                 1.5985                 1.1998
 IR Intens:       27.267                 14.965                 19.507
 Frequency:      1413.62                1435.04                1444.98
 Force Cnst:      1.8211                 2.1597                 2.0646
 Red. Mass:       1.5468                 1.7800                 1.6782
 IR Intens:       46.113                  4.899                  9.886
 Frequency:      1492.28                1707.41                1758.29
 Force Cnst:      1.5012                14.7690                13.3850
 Red. Mass:       1.1442                 8.5986                 7.3483
 IR Intens:       15.858                  0.069                 14.079
 Frequency:      3009.94                3035.65                3073.79
 Force Cnst:      5.7710                 5.7876                 6.0314
 Red. Mass:       1.0812                 1.0660                 1.0835
 IR Intens:       22.785                 59.319                 12.990
 Frequency:      3091.36                3186.05                3191.67
 Force Cnst:      6.1813                 6.5050                 6.5492
 Red. Mass:       1.0978                 1.0877                 1.0912
 IR Intens:       24.212                  9.058                  2.421
 Frequency:      3210.38                3822.90                3828.95
 Force Cnst:      6.6673                 9.1829                 9.2128
 Red. Mass:       1.0980                 1.0665                 1.0666
 IR Intens:        3.896                100.731                138.999

 STANDARD THERMODYNAMIC QUANTITIES AT   298.15 K  AND     1.00 ATM

   This Molecule has  0 Imaginary Frequencies
   Zero point vibrational energy:       98.311 kcal/mol

   Atom    1 Element C  Has Mass   12.00000
   Atom    2 Element C  Has Mass   12.00000
   Atom    3 Element O  Has Mass   15.99491
   Atom    4 Element C  Has Mass   12.00000
   Atom    5 Element C  Has Mass   12.00000
   Atom    6 Element O  Has Mass   15.99491
   Atom    7 Element C  Has Mass   12.00000
   Atom    8 Element O  Has Mass   15.99491
   Atom    9 Element O  Has Mass   15.99491
   Atom   10 Element C  Has Mass   12.00000
   Atom   11 Element C  Has Mass   12.00000
   Atom   12 Element H  Has Mass    1.00783
   Atom   13 Element H  Has Mass    1.00783
   Atom   14 Element H  Has Mass    1.00783
   Atom   15 Element H  Has Mass    1.00783
   Atom   16 Element H  Has Mass    1.00783
   Atom   17 Element H  Has Mass    1.00783
   Atom   18 Element H  Has Mass    1.00783
   Atom   19 Element H  Has Mass    1.00783
   Atom   20 Element H  Has Mass    1.00783
   Molecular Mass:   157.050110 amu
   Principal axes and moments of inertia in amu*Bohr^2:
                             1           2           3
    Eigenvalues --      828.24447  2649.64988  3247.38001
          X               0.95766    -0.20057     0.20655
          Y              -0.28613    -0.58331     0.76019
          Z               0.03198     0.78710     0.61600
   Rotational Symmetry Number is   1
   The Molecule is an Asymmetric Top
   Translational Enthalpy:        0.889 kcal/mol
   Rotational Enthalpy:           0.889 kcal/mol
   Vibrational Enthalpy:        103.329 kcal/mol
   gas constant (RT):             0.592 kcal/mol
   Translational Entropy:        41.063  cal/mol.K
   Rotational Entropy:           30.345  cal/mol.K
   Vibrational Entropy:          30.870  cal/mol.K

   Total Enthalpy:              105.698 kcal/mol
   Total Entropy:               102.278  cal/mol.K
 Total job time:  59501.82s(wall), 460316.61s(cpu)
        *  Thank you very much for using Q-Chem.  Have a nice day.  *
