 Q-Chem 5.4, Q-Chem, Inc., Pleasanton, CA (2021)
 Q-Chem 5.4.1 for Intel X86 EM64T Linux

User input:
--------------------------------------------------------------
$molecule
0 2
C        -0.9463699754    0.0898439325    0.6358873341
C        -2.4127847929    0.4080979661    0.7815991232
O        -2.8703969833    1.4187477940   -0.1025672800
C        -0.1320860893    0.7423599525   -0.1992344012
C         1.3461520094    0.4420744067   -0.2548864137
O         1.9048777634    0.6582304368   -1.5470530021
C         1.6200861147   -1.0083118104    0.1003514643
O         3.0541708161   -1.1838141263    0.3474989611
O         3.4223773537   -0.6073731015    1.4665744495
C         0.8103984908   -1.4966349623    1.2664484758
C        -0.4063329583   -0.9926883301    1.4851359518
H        -2.6055131956    0.7736781483    1.7970672130
H        -2.9975177667   -0.5157991037    0.6624189915
H        -2.7869885291    1.0627354768   -1.0024712890
H        -0.4883791731    1.5723024630   -0.8049089073
H         1.8629736965    1.0706614743    0.4890530297
H         1.8637761551    1.6130902012   -1.7194274077
H         1.2154071792   -2.3176039199    1.8512209384
H        -1.0340269867   -1.3872520489    2.2809681120
H         1.4611991714   -1.6401679488   -0.7828728435
$end

$rem
BASIS = 6-311++G(2df,2p)
GUI = 2
JOB_TYPE = Optimization
METHOD = wB97M-V
SCF_ALGORITHM = DIIS_GDM
MAX_SCF_CYCLES = 400
GEOM_OPT_MAX_CYCLES = 150
SCF_CONVERGENCE = 7
THRESH = 12
UNRESTRICTED = 1
Solvent_method = SMD
$end
--------------------------------------------------------------

   24    -572.8973901195      6.11e-08  Convergence criterion met
 Total energy in the final basis set =     -572.8924240348
   19    -572.8979885161      6.52e-08  Convergence criterion met
 Total energy in the final basis set =     -572.8930558480
   21    -572.8980110664      7.47e-08  Convergence criterion met
 Total energy in the final basis set =     -572.8930869286
   21    -572.8980183616      8.21e-08  Convergence criterion met
 Total energy in the final basis set =     -572.8930940775
   21    -572.8980199883      8.78e-08  Convergence criterion met
 Total energy in the final basis set =     -572.8930966097
   21    -572.8980209378      9.00e-08  Convergence criterion met
 Total energy in the final basis set =     -572.8930977381

             Standard Nuclear Orientation (Angstroms)
    I     Atom           X                Y                Z
 ----------------------------------------------------------------
    1      C      -0.9436581337     0.0860394391     0.6234710336
    2      C      -2.4056802964     0.3902049849     0.7805805413
    3      O      -2.8737847661     1.4452939148    -0.0428781804
    4      C      -0.1316597216     0.7348064439    -0.2066019563
    5      C       1.3415439045     0.4335822348    -0.2649963011
    6      O       1.8868343179     0.6330994534    -1.5664206153
    7      C       1.6258658808    -1.0033300086     0.1154062341
    8      O       3.0564473070    -1.1629020049     0.3872790507
    9      O       3.4140570656    -0.5849732868     1.4986751960
   10      C       0.8056876349    -1.4898680213     1.2682546238
   11      C      -0.4084578730    -0.9923546872     1.4743320918
   12      H      -2.5999091882     0.6904718219     1.8115391260
   13      H      -2.9811320352    -0.5233354863     0.6020676084
   14      H      -2.7926376056     1.1696326153    -0.9626230012
   15      H      -0.4786145655     1.5625807519    -0.8124799326
   16      H       1.8595916080     1.0833454942     0.4512619328
   17      H       1.8534259002     1.5750753880    -1.7666839295
   18      H       1.2037628140    -2.3063723506     1.8553830285
   19      H      -1.0390528941    -1.3888852290     2.2603867800
   20      H       1.4883929464    -1.6499345671    -0.7551508307
 ----------------------------------------------------------------

   21    -572.8980221853      9.15e-08  Convergence criterion met
 Total energy in the final basis set =     -572.8930982037
 Final energy is   -572.893098203744
 **  OPTIMIZATION CONVERGED  **

                    Orbital Energies (a.u.)
 --------------------------------------------------------------

 Alpha MOs
 -- Occupied --
-19.4646 -19.4173 -19.3430 -19.3395 -10.4140 -10.4074 -10.3891 -10.3565
-10.3544 -10.3523 -10.3419  -1.3452  -1.1653  -1.1592  -1.0262  -0.9722
 -0.8845  -0.8703  -0.8018  -0.7462  -0.7164  -0.6575  -0.6522  -0.6368
 -0.6318  -0.6131  -0.5952  -0.5758  -0.5548  -0.5382  -0.5344  -0.5151
 -0.4975  -0.4739  -0.4656  -0.4461  -0.4185  -0.4068  -0.3986  -0.3919
 -0.3887  -0.3203

 Beta MOs
 -- Occupied --
-19.4541 -19.3988 -19.3430 -19.3395 -10.4143 -10.4071 -10.3891 -10.3565
-10.3541 -10.3523 -10.3419  -1.3189  -1.1650  -1.1592  -1.0049  -0.9621
 -0.8802  -0.8677  -0.7982  -0.7424  -0.7126  -0.6537  -0.6450  -0.6307
 -0.6207  -0.5885  -0.5848  -0.5703  -0.5441  -0.5359  -0.5150  -0.5108
 -0.4941  -0.4699  -0.4632  -0.4350  -0.4177  -0.3981  -0.3902  -0.3862
 -0.3203

          Ground-State Mulliken Net Atomic Charges

     Atom                 Charge (a.u.)    Spin (a.u.)
  --------------------------------------------------------
      1 C                     0.386321       0.004811
      2 C                    -0.407919       0.000014
      3 O                    -0.447288      -0.000020
      4 C                    -0.501874      -0.003367
      5 C                    -0.255187       0.007980
      6 O                    -0.422352       0.002362
      7 C                    -0.204466      -0.003502
      8 O                     0.072242       0.315240
      9 O                    -0.220722       0.665949
     10 C                     0.023783       0.016929
     11 C                    -0.523733      -0.006983
     12 H                     0.215255       0.000188
     13 H                     0.230791       0.000079
     14 H                     0.334282       0.000012
     15 H                     0.264941       0.000515
     16 H                     0.250434      -0.002480
     17 H                     0.337927       0.000076
     18 H                     0.319003      -0.000434
     19 H                     0.294640       0.000619
     20 H                     0.253922       0.002012
  --------------------------------------------------------
  Sum of atomic charges =    -0.000000

                    Cartesian Multipole Moments
 -----------------------------------------------------------------
    Charge (ESU x 10^10)
                -0.0000
    Dipole Moment (Debye)
         X      -3.7962      Y      -0.5642      Z      -0.8866
       Tot       3.9389
    Quadrupole Moments (Debye-Ang)
        XX     -83.8231     XY      10.3969     YY     -61.1298
        XZ      -3.0967     YZ      -6.0792     ZZ     -64.4488

 Total job time:  3432.08s(wall), 26533.01s(cpu)
        *  Thank you very much for using Q-Chem.  Have a nice day.  *
