 Q-Chem 5.4, Q-Chem, Inc., Pleasanton, CA (2021)
 Q-Chem 5.4.1 for Intel X86 EM64T Linux

User input:
--------------------------------------------------------------
$molecule
0 1
O         0.9075559781   -0.5331089340    0.1026410830
C         2.2807277100   -0.2451977476   -0.0395611229
C         2.7245404021    0.8414487907    0.8944063790
O         1.9078117957    1.3610103831    1.6475893196
C         4.1432003894    1.2189035730    0.8413866876
C         4.7276446883    2.1343452932    1.6151559071
C         4.1168371073    2.9951113519    2.7094441684
O         3.1245567633    3.8672297440    2.2175343137
O         3.6549699861    2.2240669182    3.7966958777
H         0.5647864039    0.0731520667    0.7761741825
H         2.5095087526    0.0765942947   -1.0605324234
H         2.8871756288   -1.1333829285    0.1612945735
H         4.7412200024    0.6907499172    0.1097523430
H         5.7870598496    2.3025461099    1.4635559391
H         4.8935619101    3.6350954882    3.1158173690
H         2.4227339214    3.3176757218    1.8392406086
H         2.9712635110    1.6264712573    3.4633676947
$end

$rem
BASIS = 6-311++G(2df,2p)
GUI = 2
JOB_TYPE = Frequency
METHOD = wB97M-V
SOLVENT_METHOD = SMD
SCF_ALGORITHM = DIIS_GDM
MAX_SCF_CYCLES = 400
SCF_CONVERGENCE = 7
THRESH = 12
$end
--------------------------------------------------------------

   15    -496.2428291797      5.61e-08  Convergence criterion met
 Total energy in the final basis set =     -496.2370736925
   14    -496.2428321040      6.43e-08  Convergence criterion met
 Total energy in the final basis set =     -496.2370727425
   14    -496.2428248035      6.39e-08  Convergence criterion met
 Total energy in the final basis set =     -496.2370726693
   14    -496.2428295211      6.42e-08  Convergence criterion met
 Total energy in the final basis set =     -496.2370732404
   14    -496.2428278302      6.43e-08  Convergence criterion met
 Total energy in the final basis set =     -496.2370731120
   14    -496.2428282308      6.40e-08  Convergence criterion met
 Total energy in the final basis set =     -496.2370730570
   14    -496.2428290396      6.44e-08  Convergence criterion met
 Total energy in the final basis set =     -496.2370732308
   14    -496.2428238295      6.39e-08  Convergence criterion met
 Total energy in the final basis set =     -496.2370735718
   14    -496.2428291937      6.40e-08  Convergence criterion met
 Total energy in the final basis set =     -496.2370734912
   14    -496.2428285271      6.40e-08  Convergence criterion met
 Total energy in the final basis set =     -496.2370732939
   14    -496.2428289075      6.44e-08  Convergence criterion met
 Total energy in the final basis set =     -496.2370731665
   14    -496.2428284465      6.38e-08  Convergence criterion met
 Total energy in the final basis set =     -496.2370733459
   14    -496.2428291561      6.44e-08  Convergence criterion met
 Total energy in the final basis set =     -496.2370732824
   14    -496.2428296252      6.39e-08  Convergence criterion met
 Total energy in the final basis set =     -496.2370735137
   14    -496.2428283739      6.43e-08  Convergence criterion met
 Total energy in the final basis set =     -496.2370735106

                    Orbital Energies (a.u.)
 --------------------------------------------------------------

 Alpha MOs
 -- Occupied --
-19.3517 -19.3453 -19.3439 -19.3425 -10.4565 -10.4533 -10.3965 -10.3738
-10.3591  -1.2122  -1.1981  -1.1574  -1.1338  -0.9373  -0.8670  -0.8111
 -0.7356  -0.6666  -0.6565  -0.6456  -0.6193  -0.5977  -0.5922  -0.5537
 -0.5422  -0.5206  -0.5158  -0.4884  -0.4854  -0.4662  -0.4227  -0.4149
 -0.4009  -0.3853  -0.3773

          Ground-State Mulliken Net Atomic Charges

     Atom                 Charge (a.u.)
  ----------------------------------------
      1 O                    -0.447445
      2 C                    -0.502134
      3 C                     0.342437
      4 O                    -0.472530
      5 C                     0.064800
      6 C                     0.030925
      7 C                    -0.517222
      8 O                    -0.406280
      9 O                    -0.400274
     10 H                     0.349970
     11 H                     0.215523
     12 H                     0.216408
     13 H                     0.303739
     14 H                     0.260865
     15 H                     0.263696
     16 H                     0.351056
     17 H                     0.346468
  ----------------------------------------
  Sum of atomic charges =     0.000000

                    Cartesian Multipole Moments
 -----------------------------------------------------------------
    Charge (ESU x 10^10)
                 0.0000
    Dipole Moment (Debye)
         X       3.7607      Y      -2.2298      Z      -3.4130
       Tot       5.5465
    Quadrupole Moments (Debye-Ang)
        XX     -29.0750     XY      -5.0205     YY     -70.1906
        XZ     -10.6608     YZ     -12.5794     ZZ     -70.5665

             Standard Nuclear Orientation (Angstroms)
    I     Atom           X                Y                Z
 ----------------------------------------------------------------
    1      O       0.9075559781    -0.5331089340     0.1026410830
    2      C       2.2807277100    -0.2451977476    -0.0395611229
    3      C       2.7245404021     0.8414487907     0.8944063790
    4      O       1.9078117957     1.3610103831     1.6475893196
    5      C       4.1432003894     1.2189035730     0.8413866876
    6      C       4.7276446883     2.1343452932     1.6151559071
    7      C       4.1168371073     2.9951113519     2.7094441684
    8      O       3.1245567633     3.8672297440     2.2175343137
    9      O       3.6549699861     2.2240669182     3.7966958777
   10      H       0.5647864039     0.0731520667     0.7761741825
   11      H       2.5095087526     0.0765942947    -1.0605324234
   12      H       2.8871756288    -1.1333829285     0.1612945735
   13      H       4.7412200024     0.6907499172     0.1097523430
   14      H       5.7870598496     2.3025461099     1.4635559391
   15      H       4.8935619101     3.6350954882     3.1158173690
   16      H       2.4227339214     3.3176757218     1.8392406086
   17      H       2.9712635110     1.6264712573     3.4633676947
 ----------------------------------------------------------------

 Frequency:        43.83                  73.59                 117.19
 Force Cnst:      0.0088                 0.0143                 0.0234
 Red. Mass:       7.7510                 4.4731                 2.8900
 IR Intens:        0.488                 26.036                 11.713
 Frequency:       146.24                 226.85                 242.23
 Force Cnst:      0.0872                 0.0475                 0.2232
 Red. Mass:       6.9165                 1.5657                 6.4555
 IR Intens:        4.439                127.002                  0.533
 Frequency:       272.73                 338.33                 395.70
 Force Cnst:      0.0849                 0.5022                 0.1874
 Red. Mass:       1.9362                 7.4470                 2.0316
 IR Intens:       49.249                 69.461                  2.342
 Frequency:       420.11                 453.38                 470.14
 Force Cnst:      0.2313                 0.1982                 0.1836
 Red. Mass:       2.2244                 1.6366                 1.4099
 IR Intens:       24.918                 93.365                 86.915
 Frequency:       560.83                 605.23                 647.64
 Force Cnst:      0.4560                 0.5205                 1.0695
 Red. Mass:       2.4608                 2.4118                 4.3278
 IR Intens:      237.011                  8.609                 28.140
 Frequency:       790.59                 793.26                 883.84
 Force Cnst:      0.6794                 0.9600                 1.9276
 Red. Mass:       1.8450                 2.5894                 4.1880
 IR Intens:       49.226                 24.939                 16.514
 Frequency:       953.79                1011.94                1047.72
 Force Cnst:      2.1711                 1.4734                 0.8384
 Red. Mass:       4.0505                 2.4420                 1.2963
 IR Intens:       32.888                 16.141                  0.116
 Frequency:      1135.76                1201.50                1211.50
 Force Cnst:      2.6089                 1.6564                 0.9985
 Red. Mass:       3.4328                 1.9474                 1.1547
 IR Intens:      346.537                206.964                267.159
 Frequency:      1234.52                1247.96                1279.20
 Force Cnst:      1.1710                 1.0464                 1.0428
 Red. Mass:       1.3041                 1.1404                 1.0816
 IR Intens:      210.642                 61.295                  2.627
 Frequency:      1304.99                1354.51                1396.77
 Force Cnst:      3.3707                 2.1634                 2.2344
 Red. Mass:       3.3593                 2.0013                 1.9438
 IR Intens:      205.283                 18.424                  8.875
 Frequency:      1420.20                1436.67                1457.33
 Force Cnst:      1.6030                 1.5916                 1.6867
 Red. Mass:       1.3489                 1.3088                 1.3480
 IR Intens:      103.531                 60.365                172.646
 Frequency:      1467.56                1505.59                1689.09
 Force Cnst:      1.7200                 2.4533                16.6632
 Red. Mass:       1.3555                 1.8369                 9.9129
 IR Intens:      170.637                 26.658                336.577
 Frequency:      1741.85                3041.44                3074.47
 Force Cnst:     13.4289                 5.7761                 6.1421
 Red. Mass:       7.5122                 1.0598                 1.1029
 IR Intens:      144.593                 50.794                  6.973
 Frequency:      3146.44                3182.63                3200.32
 Force Cnst:      6.3552                 6.4855                 6.6127
 Red. Mass:       1.0895                 1.0867                 1.0958
 IR Intens:       43.960                  4.475                  4.012
 Frequency:      3721.97                3735.21                3760.79
 Force Cnst:      8.6971                 8.7604                 8.8816
 Red. Mass:       1.0656                 1.0657                 1.0658
 IR Intens:      197.669                149.011                209.011

 STANDARD THERMODYNAMIC QUANTITIES AT   298.15 K  AND     1.00 ATM

   This Molecule has  0 Imaginary Frequencies
   Zero point vibrational energy:       84.979 kcal/mol

   Atom    1 Element O  Has Mass   15.99491
   Atom    2 Element C  Has Mass   12.00000
   Atom    3 Element C  Has Mass   12.00000
   Atom    4 Element O  Has Mass   15.99491
   Atom    5 Element C  Has Mass   12.00000
   Atom    6 Element C  Has Mass   12.00000
   Atom    7 Element C  Has Mass   12.00000
   Atom    8 Element O  Has Mass   15.99491
   Atom    9 Element O  Has Mass   15.99491
   Atom   10 Element H  Has Mass    1.00783
   Atom   11 Element H  Has Mass    1.00783
   Atom   12 Element H  Has Mass    1.00783
   Atom   13 Element H  Has Mass    1.00783
   Atom   14 Element H  Has Mass    1.00783
   Atom   15 Element H  Has Mass    1.00783
   Atom   16 Element H  Has Mass    1.00783
   Atom   17 Element H  Has Mass    1.00783
   Molecular Mass:   132.042280 amu
   Principal axes and moments of inertia in amu*Bohr^2:
                             1           2           3
    Eigenvalues --      533.06336  1948.57822  2136.56968
          X               0.48217     0.85147    -0.20620
          Y               0.68065    -0.21590     0.70007
          Z               0.55157    -0.47790    -0.68365
   Rotational Symmetry Number is   1
   The Molecule is an Asymmetric Top
   Translational Enthalpy:        0.889 kcal/mol
   Rotational Enthalpy:           0.889 kcal/mol
   Vibrational Enthalpy:         89.312 kcal/mol
   gas constant (RT):             0.592 kcal/mol
   Translational Entropy:        40.546  cal/mol.K
   Rotational Entropy:           29.185  cal/mol.K
   Vibrational Entropy:          27.456  cal/mol.K

   Total Enthalpy:               91.682 kcal/mol
   Total Entropy:                97.187  cal/mol.K
 Total job time:  12197.93s(wall), 169244.07s(cpu)
        *  Thank you very much for using Q-Chem.  Have a nice day.  *
