 Q-Chem 5.4, Q-Chem, Inc., Pleasanton, CA (2021)
 Q-Chem 5.4.1 for Intel X86 EM64T Linux

User input:
--------------------------------------------------------------
$molecule
0 1
O         0.8989821311   -0.5189297164    0.1319078564
C         2.2722443095   -0.2496071578   -0.0405100190
C         2.7428694824    0.8353888722    0.8942707435
O         1.9233510258    1.3539882569    1.6592423723
C         4.1604639218    1.2155393730    0.8365069007
C         4.7371470679    2.1406739529    1.6175434312
C         4.1060663334    2.9938088171    2.7134335613
O         3.1180723298    3.8627305198    2.2073166935
O         3.6387599897    2.2093696724    3.7885485143
H         0.5943995370    0.1164563711    0.8082209930
H         2.4904547390    0.0736808728   -1.0693191718
H         2.8774198177   -1.1481364068    0.1472512763
H         4.7630682471    0.6893880500    0.1005225567
H         5.7998391241    2.3182400118    1.4655842436
H         4.8783281079    3.6382358249    3.1342149282
H         2.4217283034    3.2873737245    1.8379489612
H         2.9419603325    1.6345102615    3.4212790587
$end

$rem
BASIS = 6-311++G(2df,2p)
GUI = 2
JOB_TYPE = Optimization
METHOD = wB97M-V
SCF_ALGORITHM = DIIS_GDM
MAX_SCF_CYCLES = 400
GEOM_OPT_MAX_CYCLES = 150
SCF_CONVERGENCE = 7
THRESH = 12
Solvent_method = SMD
$end
--------------------------------------------------------------

   15    -496.2421260203      5.42e-08  Convergence criterion met
 Total energy in the final basis set =     -496.2364263140
   14    -496.2427425554      6.69e-08  Convergence criterion met
 Total energy in the final basis set =     -496.2369693065
   15    -496.2426006896      6.28e-08  Convergence criterion met
 Total energy in the final basis set =     -496.2368843829
   14    -496.2428208923      6.26e-08  Convergence criterion met
 Total energy in the final basis set =     -496.2370655532
   14    -496.2428195548      7.74e-08  Convergence criterion met
 Total energy in the final basis set =     -496.2370630315
   15    -496.2428272051      6.78e-08  Convergence criterion met
 Total energy in the final basis set =     -496.2370719256
   14    -496.2428255201      6.40e-08  Convergence criterion met
 Total energy in the final basis set =     -496.2370705769
   14    -496.2428291753      6.39e-08  Convergence criterion met
 Total energy in the final basis set =     -496.2370734434

             Standard Nuclear Orientation (Angstroms)
    I     Atom           X                Y                Z
 ----------------------------------------------------------------
    1      O       0.9075559781    -0.5331089340     0.1026410830
    2      C       2.2807277100    -0.2451977476    -0.0395611229
    3      C       2.7245404021     0.8414487907     0.8944063790
    4      O       1.9078117957     1.3610103831     1.6475893196
    5      C       4.1432003894     1.2189035730     0.8413866876
    6      C       4.7276446883     2.1343452932     1.6151559071
    7      C       4.1168371073     2.9951113519     2.7094441684
    8      O       3.1245567633     3.8672297440     2.2175343137
    9      O       3.6549699861     2.2240669182     3.7966958777
   10      H       0.5647864039     0.0731520667     0.7761741825
   11      H       2.5095087526     0.0765942947    -1.0605324234
   12      H       2.8871756288    -1.1333829285     0.1612945735
   13      H       4.7412200024     0.6907499172     0.1097523430
   14      H       5.7870598496     2.3025461099     1.4635559391
   15      H       4.8935619101     3.6350954882     3.1158173690
   16      H       2.4227339214     3.3176757218     1.8392406086
   17      H       2.9712635110     1.6264712573     3.4633676947
 ----------------------------------------------------------------

   14    -496.2428291792      6.39e-08  Convergence criterion met
 Total energy in the final basis set =     -496.2370736921
 Final energy is   -496.237073692066
 **  OPTIMIZATION CONVERGED  **

                    Orbital Energies (a.u.)
 --------------------------------------------------------------

 Alpha MOs
 -- Occupied --
-19.3517 -19.3453 -19.3439 -19.3425 -10.4565 -10.4533 -10.3965 -10.3738
-10.3591  -1.2122  -1.1981  -1.1574  -1.1338  -0.9372  -0.8670  -0.8112
 -0.7356  -0.6666  -0.6565  -0.6457  -0.6193  -0.5977  -0.5922  -0.5537
 -0.5422  -0.5206  -0.5158  -0.4884  -0.4854  -0.4662  -0.4227  -0.4149
 -0.4009  -0.3853  -0.3773

          Ground-State Mulliken Net Atomic Charges

     Atom                 Charge (a.u.)
  ----------------------------------------
      1 O                    -0.447443
      2 C                    -0.502110
      3 C                     0.342496
      4 O                    -0.472582
      5 C                     0.064747
      6 C                     0.030867
      7 C                    -0.517152
      8 O                    -0.406284
      9 O                    -0.400280
     10 H                     0.349961
     11 H                     0.215516
     12 H                     0.216399
     13 H                     0.303743
     14 H                     0.260858
     15 H                     0.263763
     16 H                     0.351048
     17 H                     0.346451
  ----------------------------------------
  Sum of atomic charges =     0.000000

                    Cartesian Multipole Moments
 -----------------------------------------------------------------
    Charge (ESU x 10^10)
                 0.0000
    Dipole Moment (Debye)
         X       3.7605      Y      -2.2296      Z      -3.4109
       Tot       5.5450
    Quadrupole Moments (Debye-Ang)
        XX     -29.0771     XY      -5.0206     YY     -70.1905
        XZ     -10.6563     YZ     -12.5771     ZZ     -70.5549

 Total job time:  1043.27s(wall), 14610.71s(cpu)
        *  Thank you very much for using Q-Chem.  Have a nice day.  *
