 Q-Chem 5.4, Q-Chem, Inc., Pleasanton, CA (2021)
 Q-Chem 5.4.1 for Intel X86 EM64T Linux

User input:
--------------------------------------------------------------
$molecule
0 2
O         3.2843835946   -1.2160947376   -0.1421393964
C         2.5015340324   -0.0444179333   -0.2707809263
C         3.0805437440    1.2004370784    0.3741500052
O         2.4352196987    2.2537555480    0.2761298133
C         4.3225062831    1.1221879786    1.0813610883
C         4.9986156555    2.3033132072    1.6864916344
C         4.2482846769    2.7835564828    2.9319150247
O         4.2364547619    1.7077341926    3.8398497061
O         4.9693849341    3.8839083820    3.4370293131
H         3.1807118948   -1.5606102658    0.7511141302
H         1.4970096931   -0.1853317181    0.1336367489
H         2.4023466807    0.1666466314   -1.3355528076
H         4.7609791835    0.1494500919    1.2406254914
H         5.9969628860    2.0047927892    2.0190782013
H         3.5852786443    1.8931971551    4.5258004159
H         4.3554836912    4.4875944253    3.8685381215
H         3.2328318453    3.0899974164    2.6806073414
O         5.0932530345    3.3565920393    0.7383634190
H         5.4648274656    4.1160244368    1.2046305755
$end

$rem
BASIS = 6-311++G(2df,2p)
GUI = 2
JOB_TYPE = Frequency
METHOD = wB97M-V
SOLVENT_METHOD = SMD
SCF_ALGORITHM = DIIS_GDM
MAX_SCF_CYCLES = 400
SCF_CONVERGENCE = 7
THRESH = 12
$end
--------------------------------------------------------------

   20    -572.0508075623      9.41e-08  Convergence criterion met
 Total energy in the final basis set =     -572.0432307711
   18    -572.0508069323      8.35e-08  Convergence criterion met
 Total energy in the final basis set =     -572.0432303984
   18    -572.0508076074      8.39e-08  Convergence criterion met
 Total energy in the final basis set =     -572.0432304595
   18    -572.0508084115      8.33e-08  Convergence criterion met
 Total energy in the final basis set =     -572.0432301297
   18    -572.0508055437      8.39e-08  Convergence criterion met
 Total energy in the final basis set =     -572.0432300194
   18    -572.0508066962      8.37e-08  Convergence criterion met
 Total energy in the final basis set =     -572.0432297747
   18    -572.0508065182      8.30e-08  Convergence criterion met
 Total energy in the final basis set =     -572.0432298542
   18    -572.0508061742      8.17e-08  Convergence criterion met
 Total energy in the final basis set =     -572.0432301754
   18    -572.0508066137      8.32e-08  Convergence criterion met
 Total energy in the final basis set =     -572.0432300820
   18    -572.0508077680      8.37e-08  Convergence criterion met
 Total energy in the final basis set =     -572.0432306044
   18    -572.0508070692      8.36e-08  Convergence criterion met
 Total energy in the final basis set =     -572.0432306502
   18    -572.0508077801      8.36e-08  Convergence criterion met
 Total energy in the final basis set =     -572.0432301750
   18    -572.0508061079      8.40e-08  Convergence criterion met
 Total energy in the final basis set =     -572.0432301310
   18    -572.0508069965      8.35e-08  Convergence criterion met
 Total energy in the final basis set =     -572.0432305169
   18    -572.0508075999      8.37e-08  Convergence criterion met
 Total energy in the final basis set =     -572.0432304968

                    Orbital Energies (a.u.)
 --------------------------------------------------------------

 Alpha MOs
 -- Occupied --
-19.3491 -19.3482 -19.3439 -19.3438 -19.3371 -10.4497 -10.4354 -10.4081
-10.3919 -10.3854  -1.2078  -1.1848  -1.1646  -1.1613  -1.1385  -0.9260
 -0.8586  -0.8133  -0.7414  -0.6765  -0.6630  -0.6476  -0.6334  -0.6182
 -0.5978  -0.5814  -0.5652  -0.5378  -0.5198  -0.5133  -0.5047  -0.4897
 -0.4613  -0.4556  -0.4280  -0.4248  -0.4172  -0.4007  -0.3634  -0.3437

 Beta MOs
 -- Occupied --
-19.3489 -19.3480 -19.3438 -19.3434 -19.3303 -10.4488 -10.4364 -10.4087
-10.3919 -10.3748  -1.2070  -1.1761  -1.1638  -1.1585  -1.1380  -0.9096
 -0.8546  -0.8055  -0.7374  -0.6751  -0.6588  -0.6454  -0.6288  -0.6129
 -0.5939  -0.5755  -0.5614  -0.5310  -0.5139  -0.5073  -0.4928  -0.4880
 -0.4560  -0.4457  -0.4240  -0.4233  -0.4129  -0.3973  -0.3565

          Ground-State Mulliken Net Atomic Charges

     Atom                 Charge (a.u.)    Spin (a.u.)
  --------------------------------------------------------
      1 O                    -0.426333       0.000120
      2 C                    -0.192082      -0.006760
      3 C                     0.093158       0.021447
      4 O                    -0.479980       0.244518
      5 C                     0.195070       0.691864
      6 C                    -0.397995      -0.003267
      7 C                    -0.219770       0.032256
      8 O                    -0.407030       0.004842
      9 O                    -0.448191       0.003629
     10 H                     0.333523       0.000663
     11 H                     0.207097       0.000988
     12 H                     0.201824       0.002053
     13 H                     0.297392      -0.009303
     14 H                     0.313192       0.007864
     15 H                     0.347717      -0.000998
     16 H                     0.343804       0.000667
     17 H                     0.289582       0.000158
     18 O                    -0.381257       0.008199
     19 H                     0.330277       0.001062
  --------------------------------------------------------
  Sum of atomic charges =     0.000000

                    Cartesian Multipole Moments
 -----------------------------------------------------------------
    Charge (ESU x 10^10)
                 0.0000
    Dipole Moment (Debye)
         X      -1.3801      Y      -0.7693      Z       5.4546
       Tot       5.6788
    Quadrupole Moments (Debye-Ang)
        XX     -72.1737     XY      -1.9477     YY     -56.2021
        XZ      11.4543     YZ      13.9237     ZZ     -43.1022

             Standard Nuclear Orientation (Angstroms)
    I     Atom           X                Y                Z
 ----------------------------------------------------------------
    1      O       3.2843835946    -1.2160947376    -0.1421393964
    2      C       2.5015340324    -0.0444179333    -0.2707809263
    3      C       3.0805437440     1.2004370784     0.3741500052
    4      O       2.4352196987     2.2537555480     0.2761298133
    5      C       4.3225062831     1.1221879786     1.0813610883
    6      C       4.9986156555     2.3033132072     1.6864916344
    7      C       4.2482846769     2.7835564828     2.9319150247
    8      O       4.2364547619     1.7077341926     3.8398497061
    9      O       4.9693849341     3.8839083820     3.4370293131
   10      H       3.1807118948    -1.5606102658     0.7511141302
   11      H       1.4970096931    -0.1853317181     0.1336367489
   12      H       2.4023466807     0.1666466314    -1.3355528076
   13      H       4.7609791835     0.1494500919     1.2406254914
   14      H       5.9969628860     2.0047927892     2.0190782013
   15      H       3.5852786443     1.8931971551     4.5258004159
   16      H       4.3554836912     4.4875944253     3.8685381215
   17      H       3.2328318453     3.0899974164     2.6806073414
   18      O       5.0932530345     3.3565920393     0.7383634190
   19      H       5.4648274656     4.1160244368     1.2046305755
 ----------------------------------------------------------------

 Frequency:        43.88                  59.01                  74.65
 Force Cnst:      0.0067                 0.0117                 0.0170
 Red. Mass:       5.8696                 5.7034                 5.1653
 IR Intens:        0.599                 11.755                 19.507
 Frequency:        89.07                 181.66                 192.09
 Force Cnst:      0.0112                 0.1567                 0.0662
 Red. Mass:       2.3872                 8.0607                 3.0473
 IR Intens:       24.862                 10.302                 20.398
 Frequency:       220.13                 237.03                 271.18
 Force Cnst:      0.0347                 0.1116                 0.0615
 Red. Mass:       1.2164                 3.3726                 1.4188
 IR Intens:      135.881                 39.357                197.115
 Frequency:       292.68                 337.53                 368.17
 Force Cnst:      0.0541                 0.1689                 0.0982
 Red. Mass:       1.0724                 2.5158                 1.2297
 IR Intens:      193.962                 46.211                187.792
 Frequency:       396.95                 451.59                 479.51
 Force Cnst:      0.2562                 0.6001                 0.5449
 Red. Mass:       2.7602                 4.9941                 4.0223
 IR Intens:       78.036                110.278                 24.385
 Frequency:       503.69                 521.51                 599.71
 Force Cnst:      0.4215                 1.1890                 1.5962
 Red. Mass:       2.8199                 7.4197                 7.5325
 IR Intens:        0.685                  3.866                  2.768
 Frequency:       702.30                 729.62                 850.22
 Force Cnst:      0.5839                 1.2776                 1.9857
 Red. Mass:       2.0092                 4.0735                 4.6624
 IR Intens:       15.603                 35.945                 23.351
 Frequency:       960.39                 990.12                1054.11
 Force Cnst:      1.0194                 1.4937                 1.6286
 Red. Mass:       1.8759                 2.5861                 2.4876
 IR Intens:       35.632                 28.097                 21.557
 Frequency:      1140.06                1183.52                1200.63
 Force Cnst:      3.3878                 1.1672                 1.4548
 Red. Mass:       4.4239                 1.4143                 1.7129
 IR Intens:      202.829                 76.280                 52.811
 Frequency:      1205.14                1216.28                1224.33
 Force Cnst:      1.1211                 1.2605                 1.4798
 Red. Mass:       1.3101                 1.4462                 1.6756
 IR Intens:      151.954                171.722                 76.354
 Frequency:      1243.86                1258.00                1279.14
 Force Cnst:      1.7622                 1.2302                 3.4813
 Red. Mass:       1.9331                 1.3194                 3.6112
 IR Intens:       68.483                 72.127                363.956
 Frequency:      1358.49                1379.93                1397.38
 Force Cnst:      1.5062                 1.4730                 1.5095
 Red. Mass:       1.3852                 1.3130                 1.3121
 IR Intens:       40.305                  4.113                 93.350
 Frequency:      1418.07                1428.97                1444.50
 Force Cnst:      1.5575                 1.7748                 1.5217
 Red. Mass:       1.3146                 1.4752                 1.2378
 IR Intens:        9.175                 47.965                 59.423
 Frequency:      1458.81                1470.04                1596.10
 Force Cnst:      2.1894                 3.4799                12.6852
 Red. Mass:       1.7461                 2.7331                 8.4514
 IR Intens:       28.342                124.942                180.115
 Frequency:      3047.93                3063.80                3100.09
 Force Cnst:      5.9306                 5.8685                 6.1625
 Red. Mass:       1.0835                 1.0611                 1.0883
 IR Intens:       37.256                 36.068                 40.839
 Frequency:      3118.28                3239.33                3796.12
 Force Cnst:      6.3212                 6.7323                 9.0489
 Red. Mass:       1.1034                 1.0889                 1.0658
 IR Intens:       10.229                  0.998                151.337
 Frequency:      3826.78                3832.73                3834.94
 Force Cnst:      9.2046                 9.2339                 9.2461
 Red. Mass:       1.0668                 1.0669                 1.0671
 IR Intens:      143.625                129.187                168.923

 STANDARD THERMODYNAMIC QUANTITIES AT   298.15 K  AND     1.00 ATM

   This Molecule has  0 Imaginary Frequencies
   Zero point vibrational energy:       93.451 kcal/mol

   Atom    1 Element O  Has Mass   15.99491
   Atom    2 Element C  Has Mass   12.00000
   Atom    3 Element C  Has Mass   12.00000
   Atom    4 Element O  Has Mass   15.99491
   Atom    5 Element C  Has Mass   12.00000
   Atom    6 Element C  Has Mass   12.00000
   Atom    7 Element C  Has Mass   12.00000
   Atom    8 Element O  Has Mass   15.99491
   Atom    9 Element O  Has Mass   15.99491
   Atom   10 Element H  Has Mass    1.00783
   Atom   11 Element H  Has Mass    1.00783
   Atom   12 Element H  Has Mass    1.00783
   Atom   13 Element H  Has Mass    1.00783
   Atom   14 Element H  Has Mass    1.00783
   Atom   15 Element H  Has Mass    1.00783
   Atom   16 Element H  Has Mass    1.00783
   Atom   17 Element H  Has Mass    1.00783
   Atom   18 Element O  Has Mass   15.99491
   Atom   19 Element H  Has Mass    1.00783
   Molecular Mass:   149.045020 amu
   Principal axes and moments of inertia in amu*Bohr^2:
                             1           2           3
    Eigenvalues --      771.27796  2475.45597  2737.75086
          X               0.37762    -0.00473     0.92595
          Y               0.67655    -0.68134    -0.27939
          Z               0.63221     0.73196    -0.25408
   Rotational Symmetry Number is   1
   The Molecule is an Asymmetric Top
   Translational Enthalpy:        0.889 kcal/mol
   Rotational Enthalpy:           0.889 kcal/mol
   Vibrational Enthalpy:         99.099 kcal/mol
   gas constant (RT):             0.592 kcal/mol
   Translational Entropy:        40.907  cal/mol.K
   Rotational Entropy:           30.037  cal/mol.K
   Vibrational Entropy:          36.637  cal/mol.K

   Total Enthalpy:              101.469 kcal/mol
   Total Entropy:               107.581  cal/mol.K
 Total job time:  23409.19s(wall), 330363.26s(cpu)
        *  Thank you very much for using Q-Chem.  Have a nice day.  *
