 Q-Chem 5.4, Q-Chem, Inc., Pleasanton, CA (2021)
 Q-Chem 5.4.2 for Intel X86 EM64T Linux

User input:
--------------------------------------------------------------
$molecule
0 2
C         1.1392040410    0.0863102959   -0.5444363061
O         0.5037176547   -1.0815890747   -0.6404718865
C         2.5169306931    0.0724798137   -0.1954752361
O         3.0684346984   -1.0408063552   -0.0110875072
C         3.2611877547    1.3795327597   -0.0456311985
C         4.7480415327    1.1833283156   -0.2867798340
O         4.8695938427    0.7332563322   -1.6431168293
O         5.9807102337   -0.1692274124   -1.7321523045
C         5.5625943398    2.4580116945   -0.0927485144
O         5.4417157615    2.8000686992    1.2695797617
O         6.9074091539    2.2854603510   -0.4750185209
H         0.5420471117    0.9677413637   -0.7419297622
H         1.1831659060   -1.7651092840   -0.4350743954
H         3.1104368863    1.7646540069    0.9697372295
H         2.8524232897    2.1265948770   -0.7358015598
H         5.1371076777    0.4024638126    0.3749969678
H         5.5382666015   -1.0185623407   -1.5387874960
H         5.1823563072    3.2569810338   -0.7394408342
H         5.8577416713    3.6709264785    1.3820418991
H         7.2491508427    1.5211411325    0.0212624271
$end

$rem
BASIS = 6-311++G(2df,2p)
GUI = 2
JOB_TYPE = Optimization
METHOD = wB97M-V
SCF_ALGORITHM = DIIS_GDM
MAX_SCF_CYCLES = 400
GEOM_OPT_MAX_CYCLES = 150
SCF_CONVERGENCE = 7
THRESH = 12
Solvent_method = SMD
$end
--------------------------------------------------------------

   18    -647.2164378701      9.88e-08  Convergence criterion met
 Total energy in the final basis set =     -647.2081317140
   18    -647.2172823897      6.56e-08  Convergence criterion met
 Total energy in the final basis set =     -647.2088445471
   17    -647.2173583200      7.17e-08  Convergence criterion met
 Total energy in the final basis set =     -647.2089107731
   18    -647.2174710481      8.16e-08  Convergence criterion met
 Total energy in the final basis set =     -647.2089943382
   18    -647.2174958251      8.37e-08  Convergence criterion met
 Total energy in the final basis set =     -647.2090122028
   18    -647.2175447969      7.64e-08  Convergence criterion met
 Total energy in the final basis set =     -647.2090373722
   18    -647.2176113568      8.14e-08  Convergence criterion met
 Total energy in the final basis set =     -647.2090629123
   18    -647.2176361106      8.33e-08  Convergence criterion met
   18    -647.2176596075      9.19e-08  Convergence criterion met
 Total energy in the final basis set =     -647.2090908115
   18    -647.2176933076      7.64e-08  Convergence criterion met
 Total energy in the final basis set =     -647.2091019475
   18    -647.2177650862      7.79e-08  Convergence criterion met
 Total energy in the final basis set =     -647.2091072314
   18    -647.2177426553      9.00e-08  Convergence criterion met
 Total energy in the final basis set =     -647.2091201608
   18    -647.2177571455      8.84e-08  Convergence criterion met
 Total energy in the final basis set =     -647.2091247909
   18    -647.2177727922      7.99e-08  Convergence criterion met
 Total energy in the final basis set =     -647.2091282525

             Standard Nuclear Orientation (Angstroms)
    I     Atom           X                Y                Z
 ----------------------------------------------------------------
    1      C       1.2634877786     0.0500739323    -0.7362288562
    2      O       0.5861166684    -1.0887589483    -0.7827448903
    3      C       2.4934000826     0.0908603884    -0.0331833313
    4      O       2.9103258934    -0.9550778872     0.5107007497
    5      C       3.2546271336     1.3873557953     0.0459222034
    6      C       4.7258655628     1.1734617241    -0.2596432973
    7      O       4.7742887416     0.7411700478    -1.6228518561
    8      O       5.9152295735    -0.0948179850    -1.8143751271
    9      C       5.5411297958     2.4478284987    -0.0714021394
   10      O       5.5458071605     2.7087665296     1.3135461286
   11      O       6.8486745306     2.3282690607    -0.5790254769
   12      H       0.8172531223     0.8863421201    -1.2507798191
   13      H       1.0994789020    -1.7533134346    -0.2853196828
   14      H       3.1589961572     1.7838721367     1.0575214299
   15      H       2.8303524838     2.1215452294    -0.6396423944
   16      H       5.1386099021     0.3848821062     0.3719162089
   17      H       5.5412029044    -0.9764291534    -1.6645789324
   18      H       5.0917934762     3.2764930710    -0.6203889102
   19      H       5.8752247807     3.6041853528     1.4512262907
   20      H       7.2403713500     1.5169479151    -0.2310021976
 ----------------------------------------------------------------

   18    -647.2177712975      7.55e-08  Convergence criterion met
 Total energy in the final basis set =     -647.2091289750
 Final energy is   -647.209128975042
 **  OPTIMIZATION CONVERGED  **

                    Orbital Energies (a.u.)
 --------------------------------------------------------------

 Alpha MOs
 -- Occupied --
-19.4028 -19.3954 -19.3951 -19.3460 -19.3443 -19.3301 -10.4449 -10.4297
-10.4246 -10.4032 -10.3496  -1.2701  -1.2334  -1.2013  -1.1671  -1.1347
 -1.0535  -0.9136  -0.8631  -0.8063  -0.7419  -0.7144  -0.6832  -0.6448
 -0.6423  -0.6166  -0.6005  -0.5830  -0.5750  -0.5642  -0.5501  -0.5359
 -0.5269  -0.5220  -0.5027  -0.4766  -0.4617  -0.4538  -0.4333  -0.4170
 -0.4074  -0.3893  -0.3816  -0.3068

 Beta MOs
 -- Occupied --
-19.4028 -19.3951 -19.3904 -19.3460 -19.3443 -19.3236 -10.4449 -10.4290
-10.4169 -10.4031 -10.3498  -1.2700  -1.2228  -1.2013  -1.1560  -1.1347
 -1.0533  -0.9090  -0.8511  -0.8003  -0.7392  -0.7086  -0.6829  -0.6433
 -0.6419  -0.6080  -0.5971  -0.5801  -0.5649  -0.5584  -0.5403  -0.5314
 -0.5226  -0.5067  -0.4945  -0.4616  -0.4577  -0.4432  -0.4323  -0.4166
 -0.4068  -0.3873  -0.3757

          Ground-State Mulliken Net Atomic Charges

     Atom                 Charge (a.u.)    Spin (a.u.)
  --------------------------------------------------------
      1 C                    -0.240838       0.545578
      2 O                    -0.257801       0.139579
      3 C                     0.551415       0.059688
      4 O                    -0.547746       0.236693
      5 C                    -0.627121       0.009697
      6 C                    -0.026457      -0.000745
      7 O                    -0.102312       0.001235
      8 O                    -0.324679      -0.000224
      9 C                    -0.292868       0.004555
     10 O                    -0.418439       0.000037
     11 O                    -0.456210       0.000241
     12 H                     0.261469      -0.007250
     13 H                     0.355699      -0.003955
     14 H                     0.218365       0.011551
     15 H                     0.243369       0.005108
     16 H                     0.324188      -0.001630
     17 H                     0.359279      -0.000076
     18 H                     0.296797       0.000050
     19 H                     0.341286       0.000021
     20 H                     0.342604      -0.000156
  --------------------------------------------------------
  Sum of atomic charges =    -0.000000

                    Cartesian Multipole Moments
 -----------------------------------------------------------------
    Charge (ESU x 10^10)
                -0.0000
    Dipole Moment (Debye)
         X      -2.6416      Y       1.6955      Z       0.9281
       Tot       3.2733
    Quadrupole Moments (Debye-Ang)
        XX     -86.9738     XY      -1.8360     YY     -52.8425
        XZ      11.3845     YZ       6.6389     ZZ     -74.2541

 Total job time:  2296.03s(wall), 32656.11s(cpu)
        *  Thank you very much for using Q-Chem.  Have a nice day.  *
