 Q-Chem 5.4, Q-Chem, Inc., Pleasanton, CA (2021)
 Q-Chem 5.4.1 for Intel X86 EM64T Linux

User input:
--------------------------------------------------------------
$molecule
0 2
H         0.4686272599    0.9877722568    1.6190427441
C        -0.1383583658    1.1728668353    0.7432881650
C        -1.2257957339    1.9304152358    0.8008345553
H        -1.5453064429    2.4091435659    1.7174736264
C        -2.0605262533    2.1799781691   -0.4309188698
H        -3.1156323372    1.9065597052   -0.2271840595
C        -1.6093021139    1.3060229145   -1.6131825167
H        -2.1607828448    1.5425610367   -2.5194981005
C        -0.0897682055    1.4007382306   -1.7466454656
H         0.2472092991    0.9340344117   -2.6708688834
C         0.2539379394    0.5175229634   -0.5550661800
H         1.2735996334    0.1428130183   -0.5641161649
O         0.4164405662    2.7068847227   -1.6083764749
H         0.2864741789    3.1702682961   -2.4436478262
O        -1.8386476548   -0.0682083285   -1.3072658057
O        -0.5709406614   -0.6223230728   -0.8215539213
O        -2.1486793635    3.5106926389   -0.7683237223
$end

$rem
BASIS = 6-311++G(2df,2p)
GUI = 2
JOB_TYPE = Frequency
METHOD = wB97M-V
SOLVENT_METHOD = SMD
SCF_ALGORITHM = DIIS_GDM
MAX_SCF_CYCLES = 400
SCF_CONVERGENCE = 7
THRESH = 12
$end
--------------------------------------------------------------

   27    -533.5725528537      4.39e-08  Convergence criterion met
 Total energy in the final basis set =     -533.5687554522
   22    -533.5725528213      6.64e-08  Convergence criterion met
 Total energy in the final basis set =     -533.5687552063
   22    -533.5725523772      6.50e-08  Convergence criterion met
 Total energy in the final basis set =     -533.5687551883
   22    -533.5725527019      6.68e-08  Convergence criterion met
 Total energy in the final basis set =     -533.5687553652
   22    -533.5725528500      6.52e-08  Convergence criterion met
 Total energy in the final basis set =     -533.5687553833
   22    -533.5725526956      6.64e-08  Convergence criterion met
 Total energy in the final basis set =     -533.5687549858
   22    -533.5725521096      6.55e-08  Convergence criterion met
 Total energy in the final basis set =     -533.5687550146
   22    -533.5725520764      6.55e-08  Convergence criterion met
 Total energy in the final basis set =     -533.5687552564
   22    -533.5725528637      6.60e-08  Convergence criterion met
 Total energy in the final basis set =     -533.5687553207
   22    -533.5725535265      5.50e-08  Convergence criterion met
 Total energy in the final basis set =     -533.5687553525
   22    -533.5725520430      7.88e-08  Convergence criterion met
 Total energy in the final basis set =     -533.5687554241
   22    -533.5725397719      5.38e-08  Convergence criterion met
 Total energy in the final basis set =     -533.5687552991
   22    -533.5725648368      6.89e-08  Convergence criterion met
 Total energy in the final basis set =     -533.5687545562
   22    -533.5725559584      6.59e-08  Convergence criterion met
 Total energy in the final basis set =     -533.5687552614
   22    -533.5725495156      6.64e-08  Convergence criterion met
 Total energy in the final basis set =     -533.5687554209

                    Orbital Energies (a.u.)
 --------------------------------------------------------------

 Alpha MOs
 -- Occupied --
-19.4052 -19.4050 -19.3918 -19.3535 -10.4113 -10.4092 -10.4088 -10.4086
-10.3534 -10.3495  -1.2752  -1.1808  -1.1675  -1.0708  -0.9628  -0.8827
 -0.8299  -0.7582  -0.7279  -0.6885  -0.6667  -0.6327  -0.6085  -0.5843
 -0.5715  -0.5607  -0.5522  -0.5405  -0.5157  -0.4952  -0.4909  -0.4672
 -0.4548  -0.4398  -0.4028  -0.3947  -0.3674  -0.3602

 Beta MOs
 -- Occupied --
-19.4053 -19.4050 -19.3695 -19.3528 -10.4116 -10.4091 -10.4086 -10.4081
-10.3530 -10.3496  -1.2752  -1.1761  -1.1239  -1.0700  -0.9588  -0.8818
 -0.8204  -0.7572  -0.7224  -0.6871  -0.6622  -0.6273  -0.5938  -0.5780
 -0.5665  -0.5485  -0.5418  -0.5351  -0.5063  -0.4926  -0.4805  -0.4587
 -0.4423  -0.4080  -0.3861  -0.3662  -0.3607

          Ground-State Mulliken Net Atomic Charges

     Atom                 Charge (a.u.)    Spin (a.u.)
  --------------------------------------------------------
      1 H                     0.302795       0.002085
      2 C                    -0.286205       0.000647
      3 C                    -0.128867      -0.005119
      4 H                     0.298540      -0.001213
      5 C                    -0.325351       0.039679
      6 H                     0.287665       0.092829
      7 C                    -0.234156      -0.002175
      8 H                     0.285970      -0.001904
      9 C                    -0.061471       0.008236
     10 H                     0.291223       0.002993
     11 C                    -0.142823       0.001396
     12 H                     0.277264      -0.000080
     13 O                    -0.410465       0.013908
     14 H                     0.346694      -0.001398
     15 O                    -0.130349       0.001721
     16 O                    -0.146073      -0.000428
     17 O                    -0.224392       0.848823
  --------------------------------------------------------
  Sum of atomic charges =    -0.000000

                    Cartesian Multipole Moments
 -----------------------------------------------------------------
    Charge (ESU x 10^10)
                -0.0000
    Dipole Moment (Debye)
         X       1.1905      Y       0.6035      Z      -1.4929
       Tot       2.0025
    Quadrupole Moments (Debye-Ang)
        XX     -55.9390     XY      -1.7746     YY     -71.4877
        XZ      -1.4353     YZ      -5.9472     ZZ     -45.0418

             Standard Nuclear Orientation (Angstroms)
    I     Atom           X                Y                Z
 ----------------------------------------------------------------
    1      H       0.4686272599     0.9877722568     1.6190427441
    2      C      -0.1383583658     1.1728668353     0.7432881650
    3      C      -1.2257957339     1.9304152358     0.8008345553
    4      H      -1.5453064429     2.4091435659     1.7174736264
    5      C      -2.0605262533     2.1799781691    -0.4309188698
    6      H      -3.1156323372     1.9065597052    -0.2271840595
    7      C      -1.6093021139     1.3060229145    -1.6131825167
    8      H      -2.1607828448     1.5425610367    -2.5194981005
    9      C      -0.0897682055     1.4007382306    -1.7466454656
   10      H       0.2472092991     0.9340344117    -2.6708688834
   11      C       0.2539379394     0.5175229634    -0.5550661800
   12      H       1.2735996334     0.1428130183    -0.5641161649
   13      O       0.4164405662     2.7068847227    -1.6083764749
   14      H       0.2864741789     3.1702682961    -2.4436478262
   15      O      -1.8386476548    -0.0682083285    -1.3072658057
   16      O      -0.5709406614    -0.6223230728    -0.8215539213
   17      O      -2.1486793635     3.5106926389    -0.7683237223
 ----------------------------------------------------------------

 Frequency:       116.62                 194.61                 206.30
 Force Cnst:      0.0541                 0.1387                 0.2209
 Red. Mass:       6.7571                 6.2142                 8.8112
 IR Intens:        6.341                 15.479                  2.830
 Frequency:       259.21                 291.46                 328.34
 Force Cnst:      0.0432                 0.2514                 0.3470
 Red. Mass:       1.0913                 5.0225                 5.4631
 IR Intens:      230.447                 22.236                 31.130
 Frequency:       372.74                 424.91                 536.46
 Force Cnst:      0.4788                 0.4130                 0.7598
 Red. Mass:       5.8497                 3.8823                 4.4812
 IR Intens:        9.680                  1.262                  8.653
 Frequency:       552.92                 602.12                 645.54
 Force Cnst:      1.0872                 1.2490                 1.4042
 Red. Mass:       6.0361                 5.8469                 5.7193
 IR Intens:        2.369                  6.227                  6.096
 Frequency:       730.47                 788.01                 836.45
 Force Cnst:      0.8277                 1.1354                 1.4485
 Red. Mass:       2.6329                 3.1034                 3.5139
 IR Intens:       31.177                 33.222                 27.275
 Frequency:       859.99                 879.85                 945.91
 Force Cnst:      3.0454                 1.1604                 1.3590
 Red. Mass:       6.9889                 2.5441                 2.5780
 IR Intens:       45.651                  9.894                 22.439
 Frequency:       964.15                1008.95                1017.88
 Force Cnst:      2.1340                 2.0320                 0.8175
 Red. Mass:       3.8963                 3.3879                 1.3393
 IR Intens:       43.730                 57.560                 11.606
 Frequency:      1035.61                1039.30                1063.79
 Force Cnst:      1.1339                 1.4214                 1.5773
 Red. Mass:       1.7944                 2.2335                 2.3656
 IR Intens:       13.619                 77.852                 73.623
 Frequency:      1081.28                1109.64                1167.70
 Force Cnst:      1.1347                 1.3044                 1.0886
 Red. Mass:       1.6472                 1.7981                 1.3551
 IR Intens:       15.109                  3.152                 14.832
 Frequency:      1205.26                1217.44                1258.86
 Force Cnst:      1.1833                 1.2103                 1.5975
 Red. Mass:       1.3825                 1.3860                 1.7110
 IR Intens:       31.878                 13.314                  9.156
 Frequency:      1272.71                1299.17                1314.54
 Force Cnst:      1.9476                 1.2777                 1.8818
 Red. Mass:       2.0407                 1.2848                 1.8484
 IR Intens:      108.893                  1.237                 73.073
 Frequency:      1338.82                1360.01                1402.67
 Force Cnst:      1.5988                 1.7446                 1.9615
 Red. Mass:       1.5139                 1.6009                 1.6921
 IR Intens:       42.340                  3.870                 17.316
 Frequency:      1456.37                1727.00                2895.45
 Force Cnst:      2.4238                12.4492                 5.3061
 Red. Mass:       1.9396                 7.0844                 1.0742
 IR Intens:       28.878                  2.686                 44.067
 Frequency:      3107.09                3139.14                3151.36
 Force Cnst:      6.1838                 6.3176                 6.3740
 Red. Mass:       1.0872                 1.0881                 1.0893
 IR Intens:       23.856                 12.589                  7.522
 Frequency:      3191.03                3210.66                3824.66
 Force Cnst:      6.5200                 6.6825                 9.1948
 Red. Mass:       1.0868                 1.1003                 1.0669
 IR Intens:        5.188                 11.696                160.884

 STANDARD THERMODYNAMIC QUANTITIES AT   298.15 K  AND     1.00 ATM

   This Molecule has  0 Imaginary Frequencies
   Zero point vibrational energy:       80.674 kcal/mol

   Atom    1 Element H  Has Mass    1.00783
   Atom    2 Element C  Has Mass   12.00000
   Atom    3 Element C  Has Mass   12.00000
   Atom    4 Element H  Has Mass    1.00783
   Atom    5 Element C  Has Mass   12.00000
   Atom    6 Element H  Has Mass    1.00783
   Atom    7 Element C  Has Mass   12.00000
   Atom    8 Element H  Has Mass    1.00783
   Atom    9 Element C  Has Mass   12.00000
   Atom   10 Element H  Has Mass    1.00783
   Atom   11 Element C  Has Mass   12.00000
   Atom   12 Element H  Has Mass    1.00783
   Atom   13 Element O  Has Mass   15.99491
   Atom   14 Element H  Has Mass    1.00783
   Atom   15 Element O  Has Mass   15.99491
   Atom   16 Element O  Has Mass   15.99491
   Atom   17 Element O  Has Mass   15.99491
   Molecular Mass:   143.034450 amu
   Principal axes and moments of inertia in amu*Bohr^2:
                             1           2           3
    Eigenvalues --      872.22203  1254.90875  1312.26289
          X              -0.32470     0.86620     0.37983
          Y               0.94454     0.31781     0.08269
          Z               0.04909    -0.38561     0.92135
   Rotational Symmetry Number is   1
   The Molecule is an Asymmetric Top
   Translational Enthalpy:        0.889 kcal/mol
   Rotational Enthalpy:           0.889 kcal/mol
   Vibrational Enthalpy:         83.952 kcal/mol
   gas constant (RT):             0.592 kcal/mol
   Translational Entropy:        40.785  cal/mol.K
   Rotational Entropy:           28.753  cal/mol.K
   Vibrational Entropy:          17.763  cal/mol.K

   Total Enthalpy:               86.322 kcal/mol
   Total Entropy:                87.301  cal/mol.K
 Total job time:  22774.20s(wall), 331826.38s(cpu)
        *  Thank you very much for using Q-Chem.  Have a nice day.  *
