 Q-Chem 5.4, Q-Chem, Inc., Pleasanton, CA (2021)
 Q-Chem 5.4.1 for Intel X86 EM64T Linux

User input:
--------------------------------------------------------------
$molecule
0 2
H         0.4681968541    0.9745381518    1.6301017968
C        -0.1351440692    1.1666823858    0.7473981576
C        -1.2326287294    1.9210896175    0.8026150403
H        -1.5596559003    2.3953731384    1.7246147543
C        -2.0556244559    2.1860890334   -0.4397728286
H        -3.1249057720    1.9617082260   -0.2449250475
C        -1.6114200578    1.2925450212   -1.6128207809
H        -2.1695715430    1.5179268618   -2.5239303086
C        -0.0892722375    1.4011241765   -1.7491048218
H         0.2556697320    0.9391352511   -2.6791650212
C         0.2623021096    0.5160723771   -0.5561267261
H         1.2879684498    0.1437191134   -0.5665426714
O         0.3992258352    2.7140696418   -1.5972241787
H         0.2070736117    3.1885649257   -2.4230900662
O        -1.8396904719   -0.0807078505   -1.2877428081
O        -0.5544684559   -0.6333433845   -0.8227421316
O        -2.0655059995    3.5231559132   -0.7975512584
$end

$rem
BASIS = 6-311++G(2df,2p)
GUI = 2
JOB_TYPE = Optimization
METHOD = wB97M-V
SCF_ALGORITHM = DIIS_GDM
MAX_SCF_CYCLES = 400
GEOM_OPT_MAX_CYCLES = 150
SCF_CONVERGENCE = 7
THRESH = 12
Solvent_method = SMD
$end
--------------------------------------------------------------

   26    -533.5719312348      8.50e-08  Convergence criterion met
 Total energy in the final basis set =     -533.5682559416
   23    -533.5724245584      3.97e-08  Convergence criterion met
 Total energy in the final basis set =     -533.5687079402
   23    -533.5724821970      3.48e-08  Convergence criterion met
 Total energy in the final basis set =     -533.5687408971
   23    -533.5725225191      5.58e-08  Convergence criterion met
 Total energy in the final basis set =     -533.5687509214
   22    -533.5725380120      8.14e-08  Convergence criterion met
 Total energy in the final basis set =     -533.5687531514
   22    -533.5725498023      7.23e-08  Convergence criterion met
 Total energy in the final basis set =     -533.5687547319

             Standard Nuclear Orientation (Angstroms)
    I     Atom           X                Y                Z
 ----------------------------------------------------------------
    1      H       0.4686272599     0.9877722568     1.6190427441
    2      C      -0.1383583658     1.1728668353     0.7432881650
    3      C      -1.2257957339     1.9304152358     0.8008345553
    4      H      -1.5453064429     2.4091435659     1.7174736264
    5      C      -2.0605262533     2.1799781691    -0.4309188698
    6      H      -3.1156323372     1.9065597052    -0.2271840595
    7      C      -1.6093021139     1.3060229145    -1.6131825167
    8      H      -2.1607828448     1.5425610367    -2.5194981005
    9      C      -0.0897682055     1.4007382306    -1.7466454656
   10      H       0.2472092991     0.9340344117    -2.6708688834
   11      C       0.2539379394     0.5175229634    -0.5550661800
   12      H       1.2735996334     0.1428130183    -0.5641161649
   13      O       0.4164405662     2.7068847227    -1.6083764749
   14      H       0.2864741789     3.1702682961    -2.4436478262
   15      O      -1.8386476548    -0.0682083285    -1.3072658057
   16      O      -0.5709406614    -0.6223230728    -0.8215539213
   17      O      -2.1486793635     3.5106926389    -0.7683237223
 ----------------------------------------------------------------

   22    -533.5725528542      6.32e-08  Convergence criterion met
 Total energy in the final basis set =     -533.5687554527
 Final energy is   -533.568755452734
 **  OPTIMIZATION CONVERGED  **

                    Orbital Energies (a.u.)
 --------------------------------------------------------------

 Alpha MOs
 -- Occupied --
-19.4053 -19.4050 -19.3918 -19.3535 -10.4113 -10.4092 -10.4088 -10.4086
-10.3534 -10.3495  -1.2752  -1.1808  -1.1675  -1.0708  -0.9628  -0.8826
 -0.8299  -0.7582  -0.7279  -0.6885  -0.6667  -0.6327  -0.6086  -0.5843
 -0.5715  -0.5607  -0.5522  -0.5405  -0.5157  -0.4952  -0.4909  -0.4672
 -0.4548  -0.4398  -0.4028  -0.3947  -0.3674  -0.3602

 Beta MOs
 -- Occupied --
-19.4053 -19.4050 -19.3695 -19.3528 -10.4116 -10.4091 -10.4085 -10.4081
-10.3530 -10.3495  -1.2752  -1.1761  -1.1240  -1.0700  -0.9587  -0.8817
 -0.8204  -0.7572  -0.7223  -0.6871  -0.6622  -0.6273  -0.5938  -0.5780
 -0.5665  -0.5485  -0.5418  -0.5351  -0.5063  -0.4926  -0.4805  -0.4587
 -0.4423  -0.4080  -0.3862  -0.3661  -0.3607

          Ground-State Mulliken Net Atomic Charges

     Atom                 Charge (a.u.)    Spin (a.u.)
  --------------------------------------------------------
      1 H                     0.302790       0.002091
      2 C                    -0.286330       0.000639
      3 C                    -0.128935      -0.005070
      4 H                     0.298548      -0.001216
      5 C                    -0.325103       0.039736
      6 H                     0.287687       0.092926
      7 C                    -0.234217      -0.002224
      8 H                     0.285946      -0.001904
      9 C                    -0.061488       0.008237
     10 H                     0.291221       0.002995
     11 C                    -0.142768       0.001394
     12 H                     0.277265      -0.000080
     13 O                    -0.410493       0.013891
     14 H                     0.346689      -0.001397
     15 O                    -0.130310       0.001717
     16 O                    -0.146082      -0.000429
     17 O                    -0.224419       0.848693
  --------------------------------------------------------
  Sum of atomic charges =     0.000000

                    Cartesian Multipole Moments
 -----------------------------------------------------------------
    Charge (ESU x 10^10)
                 0.0000
    Dipole Moment (Debye)
         X       1.1896      Y       0.6037      Z      -1.4945
       Tot       2.0033
    Quadrupole Moments (Debye-Ang)
        XX     -55.9365     XY      -1.7760     YY     -71.4867
        XZ      -1.4309     YZ      -5.9527     ZZ     -45.0402

 Total job time:  1742.68s(wall), 24994.20s(cpu)
        *  Thank you very much for using Q-Chem.  Have a nice day.  *
