 Q-Chem 5.4, Q-Chem, Inc., Pleasanton, CA (2021)
 Q-Chem 5.4.1 for Intel X86 EM64T Linux

User input:
--------------------------------------------------------------
$molecule
0 2
H         0.7559052129    1.3263816691    1.5161091300
C         0.0959208877    1.3676723246    0.6609695140
C        -1.1351846146    1.9002483902    0.7514798628
H        -1.4985377309    2.2981243920    1.6891391835
C        -2.0236014199    1.8557488379   -0.3816089369
H        -3.0785052877    2.0432969651   -0.2360062006
C        -1.5465329160    1.4678106376   -1.6037513575
H        -2.2090014541    1.3666924031   -2.4514781084
C        -0.0583692069    1.5052039563   -1.8345967408
H         0.2038154008    0.9572992749   -2.7387836447
C         0.5719011830    0.7955988773   -0.6394362824
H         1.6571322971    0.7809781198   -0.7065231861
O         0.4483245000    2.8323688761   -1.8888138095
H         0.0608984573    3.2700662804   -2.6546087598
O        -1.2277839935   -0.5736399879   -0.8975431141
O         0.1630978845   -0.5727391164   -0.8426519496
$end

$rem
BASIS = 6-311++G(2df,2p)
GUI = 2
JOB_TYPE = Frequency
METHOD = wB97M-V
SOLVENT_METHOD = SMD
SCF_ALGORITHM = DIIS_GDM
MAX_SCF_CYCLES = 400
SCF_CONVERGENCE = 7
THRESH = 12
$end

--------------------------------------------------------------

   25    -458.3257217721      7.59e-08  Convergence criterion met
 Total energy in the final basis set =     -458.3218417429
   24    -458.3257216924      9.20e-08  Convergence criterion met
 Total energy in the final basis set =     -458.3218414322
   24    -458.3257212576      9.02e-08  Convergence criterion met
 Total energy in the final basis set =     -458.3218414582
   24    -458.3257216963      9.17e-08  Convergence criterion met
 Total energy in the final basis set =     -458.3218416814
   24    -458.3257217451      9.16e-08  Convergence criterion met
 Total energy in the final basis set =     -458.3218417013
   24    -458.3257216413      9.21e-08  Convergence criterion met
 Total energy in the final basis set =     -458.3218413127
   24    -458.3257210304      8.97e-08  Convergence criterion met
 Total energy in the final basis set =     -458.3218412989
   24    -458.3257210447      9.11e-08  Convergence criterion met
 Frequency:      -544.76                 168.42                 211.45
 Force Cnst:      1.6485                 0.0930                 0.1148
 Red. Mass:       9.4286                 5.5635                 4.3578
 IR Intens:      777.765                  9.520                 15.633
 Frequency:       243.92                 258.69                 325.11
 Force Cnst:      0.1926                 0.0425                 0.3825
 Red. Mass:       5.4929                 1.0771                 6.1413
 IR Intens:       12.948                212.392                 21.095
 Frequency:       344.59                 450.94                 495.92
 Force Cnst:      0.2990                 0.3656                 0.6097
 Red. Mass:       4.2745                 3.0517                 4.2077
 IR Intens:       22.763                 15.181                 40.003
 Frequency:       533.57                 618.36                 691.82
 Force Cnst:      1.0262                 1.2770                 0.6560
 Red. Mass:       6.1179                 5.6685                 2.3262
 IR Intens:       13.911                 15.365                 51.967
 Frequency:       740.16                 823.14                 875.32
 Force Cnst:      0.6153                 0.7087                 1.5266
 Red. Mass:       1.9064                 1.7752                 3.3817
 IR Intens:      201.172                 88.872                 43.132
 Frequency:       899.25                 956.45                 959.90
 Force Cnst:      1.7559                 1.5064                 2.2186
 Red. Mass:       3.6853                 2.7949                 4.0867
 IR Intens:      310.404                 30.667                 75.797
 Frequency:       986.51                 994.12                1009.09
 Force Cnst:      1.0288                 1.2842                 1.7610
 Red. Mass:       1.7942                 2.2055                 2.9352
 IR Intens:       11.658                 27.799                  6.359
 Frequency:      1032.33                1092.57                1111.27
 Force Cnst:      0.9305                 1.2632                 2.3636
 Red. Mass:       1.4819                 1.7961                 3.2485
 IR Intens:        4.840                 88.137                128.570
 Frequency:      1156.84                1171.79                1215.57
 Force Cnst:      0.8822                 0.9205                 0.9594
 Red. Mass:       1.1189                 1.1378                 1.1020
 IR Intens:        5.216                 14.808                102.169
 Frequency:      1293.55                1345.23                1359.44
 Force Cnst:      1.4099                 1.6321                 1.3839
 Red. Mass:       1.4302                 1.5308                 1.2710
 IR Intens:        7.923                  5.758                  5.892
 Frequency:      1403.40                1406.80                1448.19
 Force Cnst:      1.9470                 1.7882                 2.3201
 Red. Mass:       1.6779                 1.5336                 1.8776
 IR Intens:       15.290                 26.093                 33.322
 Frequency:      1503.41                1648.33                3096.16
 Force Cnst:      5.6965                 8.3299                 6.1341
 Red. Mass:       4.2776                 5.2036                 1.0861
 IR Intens:      311.746                 19.418                 34.336
 Frequency:      3139.06                3199.14                3207.88
 Force Cnst:      6.3126                 6.5548                 6.6011
 Red. Mass:       1.0873                 1.0870                 1.0888
 IR Intens:       14.031                  2.777                  8.182
 Frequency:      3218.90                3225.33                3831.89
 Force Cnst:      6.6989                 6.7275                 9.2294
 Red. Mass:       1.0973                 1.0976                 1.0668
 IR Intens:       13.457                 13.812                161.988

 STANDARD THERMODYNAMIC QUANTITIES AT   298.15 K  AND     1.00 ATM

   This Molecule has  1 Imaginary Frequencies
   Zero point vibrational energy:       76.759 kcal/mol

   Atom    1 Element H  Has Mass    1.00783
   Atom    2 Element C  Has Mass   12.00000
   Atom    3 Element C  Has Mass   12.00000
   Atom    4 Element H  Has Mass    1.00783
   Atom    5 Element C  Has Mass   12.00000
   Atom    6 Element H  Has Mass    1.00783
   Atom    7 Element C  Has Mass   12.00000
   Atom    8 Element H  Has Mass    1.00783
   Atom    9 Element C  Has Mass   12.00000
   Atom   10 Element H  Has Mass    1.00783
   Atom   11 Element C  Has Mass   12.00000
   Atom   12 Element H  Has Mass    1.00783
   Atom   13 Element O  Has Mass   15.99491
   Atom   14 Element H  Has Mass    1.00783
   Atom   15 Element O  Has Mass   15.99491
   Atom   16 Element O  Has Mass   15.99491
   Molecular Mass:   127.039540 amu
   Principal axes and moments of inertia in amu*Bohr^2:
                             1           2           3
    Eigenvalues --      817.29428   945.70240  1073.78852
          X               0.09802     0.68182     0.72492
          Y               0.95613    -0.26658     0.12144
          Z              -0.27605    -0.68121     0.67804
   Rotational Symmetry Number is   1
   The Molecule is an Asymmetric Top
   Translational Enthalpy:        0.889 kcal/mol
   Rotational Enthalpy:           0.889 kcal/mol
   Vibrational Enthalpy:         79.592 kcal/mol
   gas constant (RT):             0.592 kcal/mol
   Translational Entropy:        40.431  cal/mol.K
   Rotational Entropy:           28.208  cal/mol.K
   Vibrational Entropy:          14.911  cal/mol.K

   Total Enthalpy:               81.961 kcal/mol
   Total Entropy:                83.550  cal/mol.K
 Total job time:  18256.09s(wall), 265645.27s(cpu)
        *  Thank you very much for using Q-Chem.  Have a nice day.  *
 Q-Chem 5.4, Q-Chem, Inc., Pleasanton, CA (2021)
 Q-Chem 5.4.1 for Intel X86 EM64T Linux

User input:
--------------------------------------------------------------

$molecule
read
$end

$rem
JOBTYPE            rpath
SCF_GUESS          read
RPATH_MAX_CYCLES   30
BASIS = 6-311++G(2df,2p)
METHOD = wB97M-V
SOLVENT_METHOD = SMD
SCF_ALGORITHM = DIIS_GDM
SCF_CONVERGENCE = 7
THRESH = 12
$end
--------------------------------------------------------------

 Total energy in the final basis set =     -458.3468953286
   22    -458.3513908477      6.18e-08  Convergence criterion met
 Total energy in the final basis set =     -458.3474578517
   19    -458.3500070758      6.76e-08  Convergence criterion met
 Total energy in the final basis set =     -458.3460790326
   22    -458.3514776666      3.02e-08  Convergence criterion met
 Total energy in the final basis set =     -458.3475460548
   22    -458.3482673564      9.13e-08  Convergence criterion met
 Total energy in the final basis set =     -458.3443237086
   21    -458.3515237445      7.91e-08  Convergence criterion met
 Total energy in the final basis set =     -458.3475914279
   22    -458.3515124838      4.50e-08  Convergence criterion met
 Total energy in the final basis set =     -458.3475812352
   18    -458.3515359846      7.10e-08  Convergence criterion met
 Total energy in the final basis set =     -458.3476041495

                    Orbital Energies (a.u.)
 --------------------------------------------------------------

 Alpha MOs
 -- Occupied --
-19.4620 -19.4143 -19.3442 -10.4111 -10.4054 -10.3539 -10.3490 -10.3487
-10.3447  -1.3408  -1.1639  -1.0226  -0.9628  -0.8757  -0.8566  -0.7451
 -0.7258  -0.6696  -0.6483  -0.6256  -0.6106  -0.5921  -0.5751  -0.5556
 -0.5309  -0.5164  -0.4994  -0.4622  -0.4355  -0.4289  -0.4054  -0.3935
 -0.3875  -0.3302

 Beta MOs
 -- Occupied --
-19.4517 -19.3956 -19.3442 -10.4115 -10.4050 -10.3540 -10.3488 -10.3483
-10.3448  -1.3144  -1.1638  -1.0001  -0.9532  -0.8748  -0.8487  -0.7408
 -0.7233  -0.6605  -0.6441  -0.6022  -0.5890  -0.5838  -0.5712  -0.5416
 -0.5205  -0.5021  -0.4957  -0.4589  -0.4302  -0.4192  -0.3934  -0.3867
 -0.3297

          Ground-State Mulliken Net Atomic Charges

     Atom                 Charge (a.u.)    Spin (a.u.)
  --------------------------------------------------------
      1 H                     0.319946      -0.001100
      2 C                    -0.280951       0.014778
      3 C                    -0.213972      -0.004910
      4 H                     0.284385       0.000962
      5 C                    -0.250692       0.006368
      6 H                     0.285977      -0.000718
      7 C                    -0.179582       0.001057
      8 H                     0.304801       0.000517
      9 C                    -0.473408       0.004183
     10 H                     0.266457      -0.001144
     11 C                    -0.097143      -0.002242
     12 H                     0.263172       0.001389
     13 O                    -0.413097      -0.000429
     14 H                     0.338555       0.000289
     15 O                    -0.202797       0.669705
     16 O                     0.048352       0.311294
  --------------------------------------------------------
  Sum of atomic charges =    -0.000000

                    Cartesian Multipole Moments
 -----------------------------------------------------------------
    Charge (ESU x 10^10)
                -0.0000
    Dipole Moment (Debye)
         X      -0.5645      Y       2.9022      Z      -1.0782
       Tot       3.1470
    Quadrupole Moments (Debye-Ang)
        XX     -49.5432     XY      -7.7465     YY     -55.1849
        XZ       2.8249     YZ      -4.5221     ZZ     -41.5535

             Standard Nuclear Orientation (Angstroms)
    I     Atom           X                Y                Z
 ----------------------------------------------------------------
    1      H       0.7559052129     1.3263816691     1.5161091300
    2      C       0.0959208877     1.3676723246     0.6609695140
    3      C      -1.1351846146     1.9002483902     0.7514798628
    4      H      -1.4985377309     2.2981243920     1.6891391835
    5      C      -2.0236014199     1.8557488379    -0.3816089369
    6      H      -3.0785052877     2.0432969651    -0.2360062006
    7      C      -1.5465329160     1.4678106376    -1.6037513575
    8      H      -2.2090014541     1.3666924031    -2.4514781084
    9      C      -0.0583692069     1.5052039563    -1.8345967408
   10      H       0.2038154008     0.9572992749    -2.7387836447
   11      C       0.5719011830     0.7955988773    -0.6394362824
   12      H       1.6571322971     0.7809781198    -0.7065231861
   13      O       0.4483245000     2.8323688761    -1.8888138095
   14      H       0.0608984573     3.2700662804    -2.6546087598
   15      O      -1.2277839935    -0.5736399879    -0.8975431141
   16      O       0.1630978845    -0.5727391164    -0.8426519496
 ----------------------------------------------------------------

 Total job time:  17041.56s(wall), 247092.12s(cpu)
        *  Thank you very much for using Q-Chem.  Have a nice day.  *
