 Q-Chem 5.4, Q-Chem, Inc., Pleasanton, CA (2021)
 Q-Chem 5.4.1 for Intel X86 EM64T Linux

User input:
--------------------------------------------------------------
$molecule
0 2
H    0.7926905    1.3941284    1.4429930
C    0.1207049    1.4019480    0.5964905
C   -1.1070210    1.9474664    0.6821119
H   -1.4476472    2.3906280    1.6079875
C   -2.0184623    1.8531483   -0.4277097
H   -3.0722855    2.0398280   -0.2767847
C   -1.5447954    1.4124395   -1.6346116
H   -2.1986808    1.2637455   -2.4829499
C   -0.0698248    1.4517111   -1.8629128
H    0.2023765    0.9962250   -2.7651580
C    0.5666735    0.7417442   -0.6752856
H    1.6490509    0.6940414   -0.7615026
O    0.3610273    2.8642260   -1.6803517
H    0.0768528    3.4159670   -2.4173346
O   -1.2575391   -0.6212224   -0.8025958
O    0.1263589   -0.6249125   -0.8004903
$end

$rem
BASIS = 6-311++G(2df,2p)
GUI = 2
JOB_TYPE = Frequency
METHOD = wB97M-V
SCF_ALGORITHM = DIIS_GDM
MAX_SCF_CYCLES = 400
SCF_CONVERGENCE = 6
THRESH = 11
solvent_method = SMD
$end

--------------------------------------------------------------

   23    -458.3172321989      9.40e-07  Convergence criterion met
 Total energy in the final basis set =     -458.3133158651
   21    -458.3172320757      8.27e-07  Convergence criterion met
 Total energy in the final basis set =     -458.3133155075
   21    -458.3172317128      8.15e-07  Convergence criterion met
 Total energy in the final basis set =     -458.3133156122
   21    -458.3172327422      8.28e-07  Convergence criterion met
 Total energy in the final basis set =     -458.3133164110
   21    -458.3172315501      8.18e-07  Convergence criterion met
 Total energy in the final basis set =     -458.3133152134
   21    -458.3172324645      8.29e-07  Convergence criterion met
 Total energy in the final basis set =     -458.3133158352
   21    -458.3172310767      8.19e-07  Convergence criterion met
 Total energy in the final basis set =     -458.3133150367
   21    -458.3172254053      8.15e-07  Convergence criterion met
 Frequency:      -572.95                 -72.04                 204.66
 Force Cnst:      1.9046                 0.0038                 0.0915
 Red. Mass:       9.8477                 1.2397                 3.7068
 IR Intens:     1165.588                238.924                  5.188
 Frequency:       224.44                 260.14                 333.06
 Force Cnst:      0.1347                 0.1806                 0.3388
 Red. Mass:       4.5393                 4.5282                 5.1843
 IR Intens:        4.319                  8.875                 12.152
 Frequency:       337.21                 451.52                 498.34
 Force Cnst:      0.2991                 0.3629                 0.5661
 Red. Mass:       4.4642                 3.0212                 3.8691
 IR Intens:       19.279                 16.007                 46.730
 Frequency:       525.54                 610.25                 688.31
 Force Cnst:      0.9025                 1.2495                 0.6121
 Red. Mass:       5.5463                 5.6947                 2.1929
 IR Intens:        7.948                 39.036                 63.472
 Frequency:       733.29                 805.75                 877.31
 Force Cnst:      0.6889                 0.6727                 1.5338
 Red. Mass:       2.1743                 1.7585                 3.3823
 IR Intens:      230.420                 57.409                167.061
 Frequency:       882.50                 906.83                 953.91
 Force Cnst:      2.1356                 1.4359                 1.6109
 Red. Mass:       4.6540                 2.9635                 3.0047
 IR Intens:      369.268                109.739                 89.577
 Frequency:       961.45                 983.33                 989.26
 Force Cnst:      1.5038                 0.9791                 1.3502
 Red. Mass:       2.7611                 1.7186                 2.3416
 IR Intens:       31.883                 15.053                 49.442
 Frequency:      1008.80                1028.05                1077.22
 Force Cnst:      1.4075                 0.9833                 0.9569
 Red. Mass:       2.3474                 1.5791                 1.3997
 IR Intens:        9.048                  6.814                 33.762
 Frequency:      1096.13                1139.29                1171.05
 Force Cnst:      0.8599                 0.8775                 0.9232
 Red. Mass:       1.2147                 1.1474                 1.1426
 IR Intens:       62.528                 18.975                  2.287
 Frequency:      1224.72                1305.17                1312.92
 Force Cnst:      1.2590                 1.4131                 1.9835
 Red. Mass:       1.4246                 1.4080                 1.9531
 IR Intens:       26.096                  4.431                  8.883
 Frequency:      1345.99                1395.92                1446.78
 Force Cnst:      1.5076                 1.8690                 2.4196
 Red. Mass:       1.4124                 1.6279                 1.9619
 IR Intens:        8.770                 28.124                 32.943
 Frequency:      1496.55                1639.85                3144.94
 Force Cnst:      6.0625                 8.1795                 6.3370
 Red. Mass:       4.5943                 5.1626                 1.0875
 IR Intens:      388.590                 19.228                 13.004
 Frequency:      3198.30                3207.25                3216.72
 Force Cnst:      6.5524                 6.5994                 6.6832
 Red. Mass:       1.0872                 1.0889                 1.0962
 IR Intens:        5.154                  0.875                 17.931
 Frequency:      3223.31                3521.10                3831.97
 Force Cnst:      6.7241                 7.9520                 9.2377
 Red. Mass:       1.0984                 1.0886                 1.0678
 IR Intens:       18.543                 12.324                171.014

 STANDARD THERMODYNAMIC QUANTITIES AT   298.15 K  AND     1.00 ATM

   This Molecule has  2 Imaginary Frequencies
   Zero point vibrational energy:       76.138 kcal/mol

   Atom    1 Element H  Has Mass    1.00783
   Atom    2 Element C  Has Mass   12.00000
   Atom    3 Element C  Has Mass   12.00000
   Atom    4 Element H  Has Mass    1.00783
   Atom    5 Element C  Has Mass   12.00000
   Atom    6 Element H  Has Mass    1.00783
   Atom    7 Element C  Has Mass   12.00000
   Atom    8 Element H  Has Mass    1.00783
   Atom    9 Element C  Has Mass   12.00000
   Atom   10 Element H  Has Mass    1.00783
   Atom   11 Element C  Has Mass   12.00000
   Atom   12 Element H  Has Mass    1.00783
   Atom   13 Element O  Has Mass   15.99491
   Atom   14 Element H  Has Mass    1.00783
   Atom   15 Element O  Has Mass   15.99491
   Atom   16 Element O  Has Mass   15.99491
   Molecular Mass:   127.039540 amu
   Principal axes and moments of inertia in amu*Bohr^2:
                             1           2           3
    Eigenvalues --      770.47513   963.79935  1055.74650
          X               0.03370     0.77691     0.62871
          Y               0.98989    -0.11267     0.08616
          Z              -0.13777    -0.61945     0.77285
   Rotational Symmetry Number is   1
   The Molecule is an Asymmetric Top
   Translational Enthalpy:        0.889 kcal/mol
   Rotational Enthalpy:           0.889 kcal/mol
   Vibrational Enthalpy:         78.654 kcal/mol
   gas constant (RT):             0.592 kcal/mol
   Translational Entropy:        40.431  cal/mol.K
   Rotational Entropy:           28.152  cal/mol.K
   Vibrational Entropy:          12.847  cal/mol.K

   Total Enthalpy:               81.024 kcal/mol
   Total Entropy:                81.430  cal/mol.K
 Total job time:  18706.56s(wall), 270448.36s(cpu)
        *  Thank you very much for using Q-Chem.  Have a nice day.  *
 Q-Chem 5.4, Q-Chem, Inc., Pleasanton, CA (2021)
 Q-Chem 5.4.1 for Intel X86 EM64T Linux

User input:
--------------------------------------------------------------

$rem
JOBTYPE = ts
SCF_GUESS = read
GEOM_OPT_HESSIAN = read
MAX_SCF_CYCLES = 350
GEOM_OPT_DMAX = 60
GEOM_OPT_MAX_CYCLES = 250
METHOD = wB97M-v
BASIS = 6-311++G(2df,2p)
SCF_CONVERGENCE = 7
THRESH = 12
SCF_ALGORITHM = DIIS_GDM
solvent_method = SMD
$end

$molecule
read
$end
--------------------------------------------------------------

   24    -458.3243800846      9.68e-08  Convergence criterion met
 Total energy in the final basis set =     -458.3204859272
   24    -458.3248925413      9.40e-08  Convergence criterion met
 Total energy in the final basis set =     -458.3210011650
   24    -458.3252466766      9.48e-08  Convergence criterion met
 Total energy in the final basis set =     -458.3213578943
   24    -458.3254828866      9.62e-08  Convergence criterion met
 Total energy in the final basis set =     -458.3215967183
   24    -458.3256286638      9.59e-08  Convergence criterion met
 Total energy in the final basis set =     -458.3217451670
   24    -458.3257048709      9.43e-08  Convergence criterion met
 Total energy in the final basis set =     -458.3218237314

             Standard Nuclear Orientation (Angstroms)
    I     Atom           X                Y                Z
 ----------------------------------------------------------------
    1      H       0.7559052129     1.3263816691     1.5161091300
    2      C       0.0959208877     1.3676723246     0.6609695140
    3      C      -1.1351846146     1.9002483902     0.7514798628
    4      H      -1.4985377309     2.2981243920     1.6891391835
    5      C      -2.0236014199     1.8557488379    -0.3816089369
    6      H      -3.0785052877     2.0432969651    -0.2360062006
    7      C      -1.5465329160     1.4678106376    -1.6037513575
    8      H      -2.2090014541     1.3666924031    -2.4514781084
    9      C      -0.0583692069     1.5052039563    -1.8345967408
   10      H       0.2038154008     0.9572992749    -2.7387836447
   11      C       0.5719011830     0.7955988773    -0.6394362824
   12      H       1.6571322971     0.7809781198    -0.7065231861
   13      O       0.4483245000     2.8323688761    -1.8888138095
   14      H       0.0608984573     3.2700662804    -2.6546087598
   15      O      -1.2277839935    -0.5736399879    -0.8975431141
   16      O       0.1630978845    -0.5727391164    -0.8426519496
 ----------------------------------------------------------------

   24    -458.3257217724      9.27e-08  Convergence criterion met
 Total energy in the final basis set =     -458.3218417432
 Final energy is   -458.321841743151
 **  OPTIMIZATION CONVERGED  **

                    Orbital Energies (a.u.)
 --------------------------------------------------------------

 Alpha MOs
 -- Occupied --
-19.4059 -19.3865 -19.3475 -10.4081 -10.4065 -10.3782 -10.3703 -10.3610
-10.3580  -1.2680  -1.1688  -1.0057  -0.9783  -0.8825  -0.8585  -0.7461
 -0.7294  -0.6656  -0.6533  -0.6023  -0.5881  -0.5808  -0.5702  -0.5494
 -0.5219  -0.5087  -0.5007  -0.4657  -0.4499  -0.4308  -0.4093  -0.3991
 -0.3545  -0.3159

 Beta MOs
 -- Occupied --
-19.4034 -19.3714 -19.3477 -10.4082 -10.4060 -10.3787 -10.3653 -10.3596
-10.3576  -1.2539  -1.1688  -0.9888  -0.9686  -0.8795  -0.8493  -0.7434
 -0.7245  -0.6595  -0.6494  -0.5981  -0.5810  -0.5729  -0.5656  -0.5454
 -0.5153  -0.5021  -0.4853  -0.4591  -0.4269  -0.4216  -0.3980  -0.3646
 -0.3306

          Ground-State Mulliken Net Atomic Charges

     Atom                 Charge (a.u.)    Spin (a.u.)
  --------------------------------------------------------
      1 H                     0.322300      -0.005708
      2 C                    -0.117174       0.217384
      3 C                    -0.262879      -0.069676
      4 H                     0.293915       0.002802
      5 C                    -0.180042       0.333606
      6 H                     0.292374      -0.007088
      7 C                    -0.265812      -0.062883
      8 H                     0.326700       0.001531
      9 C                    -0.243000       0.020182
     10 H                     0.292758      -0.000538
     11 C                    -0.282615      -0.007976
     12 H                     0.263799       0.001564
     13 O                    -0.422904      -0.004403
     14 H                     0.344253       0.001767
     15 O                    -0.279255       0.500385
     16 O                    -0.082417       0.079051
  --------------------------------------------------------
  Sum of atomic charges =     0.000000

                    Cartesian Multipole Moments
 -----------------------------------------------------------------
    Charge (ESU x 10^10)
                 0.0000
    Dipole Moment (Debye)
         X      -0.8596      Y       4.7643      Z      -0.8733
       Tot       4.9194
    Quadrupole Moments (Debye-Ang)
        XX     -47.0213     XY      -9.7583     YY     -52.4362
        XZ       2.6270     YZ      -7.0302     ZZ     -40.3221

 Total job time:  2640.20s(wall), 38294.00s(cpu)
        *  Thank you very much for using Q-Chem.  Have a nice day.  *
