 Q-Chem 5.4, Q-Chem, Inc., Pleasanton, CA (2021)
 Q-Chem 5.4.1 for Intel X86 EM64T Linux

User input:
--------------------------------------------------------------
$molecule
0 2
C    1.8615048    0.2398532   -1.5855449
O    0.9483314    1.1062802   -2.2306752
C    2.2758295    0.8144919   -0.2489284
O    1.7183297    1.8559498    0.1328669
C    3.2750197    0.2134923    0.5800773
C    4.1063245   -0.9876678    0.3051741
C    5.4882522   -0.6128120   -0.2437392
O    5.2995121    0.1122062   -1.4334828
O    6.1190503    0.1576749    0.7500929
H    2.7423711    0.0945213   -2.2106135
H    1.4043581   -0.7374967   -1.4187945
H    0.7477238    1.8078395   -1.5919038
H    3.4845306    0.7442801    1.4989838
H    4.2768165   -1.5259730    1.2405347
H    6.0578512   -1.5211696   -0.4412773
H    6.1106850    0.0696793   -1.9525353
H    7.0670603    0.1574047    0.5753338
O    3.5521451   -1.8826220   -0.6503487
O    2.4190158   -2.5077842   -0.0507016
H    2.8094038   -3.2972980    0.3550130
$end

$rem
BASIS = 6-311++G(2df,2p)
GUI = 2
JOB_TYPE = Frequency
METHOD = wB97M-V
SOLVENT_METHOD = SMD
SCF_ALGORITHM = DIIS_GDM
MAX_SCF_CYCLES = 400
SCF_CONVERGENCE = 7
THRESH = 12
$end
--------------------------------------------------------------

   20    -647.1922437285      4.04e-08  Convergence criterion met
 Total energy in the final basis set =     -647.1848254153
   18    -647.1922409662      9.95e-08  Convergence criterion met
 Total energy in the final basis set =     -647.1848243683
   19    -647.1922445690      4.66e-08  Convergence criterion met
 Total energy in the final basis set =     -647.1848243550
   17    -647.1922432233      8.04e-08  Convergence criterion met
 Total energy in the final basis set =     -647.1848243429
   19    -647.1922422534      4.55e-08  Convergence criterion met
 Total energy in the final basis set =     -647.1848243458
   19    -647.1922402772      5.17e-08  Convergence criterion met
 Total energy in the final basis set =     -647.1848245217
   18    -647.1922454416      8.05e-08  Convergence criterion met
 Total energy in the final basis set =     -647.1848244728
   19    -647.1922444086      4.45e-08  Convergence criterion met
 Total energy in the final basis set =     -647.1848250844
   19    -647.1922438043      5.12e-08  Convergence criterion met
 Total energy in the final basis set =     -647.1848251672
   19    -647.1922433022      5.14e-08  Convergence criterion met
 Total energy in the final basis set =     -647.1848251317
   19    -647.1922436570      5.14e-08  Convergence criterion met
 Total energy in the final basis set =     -647.1848252005
   19    -647.1922421902      5.16e-08  Convergence criterion met
 Total energy in the final basis set =     -647.1848247727
   19    -647.1922440482      5.10e-08  Convergence criterion met
 Total energy in the final basis set =     -647.1848248398
   19    -647.1922437815      5.13e-08  Convergence criterion met
 Total energy in the final basis set =     -647.1848251832
   19    -647.1922433343      5.19e-08  Convergence criterion met
 Total energy in the final basis set =     -647.1848253059

                    Orbital Energies (a.u.)
 --------------------------------------------------------------

 Alpha MOs
 -- Occupied --
-19.4098 -19.4004 -19.3503 -19.3501 -19.3443 -19.3366 -10.4593 -10.4429
-10.4175 -10.3902 -10.3889  -1.2788  -1.2080  -1.1975  -1.1495  -1.1418
 -1.0603  -0.9247  -0.8619  -0.8126  -0.7393  -0.6926  -0.6695  -0.6671
 -0.6425  -0.6108  -0.6089  -0.5950  -0.5861  -0.5732  -0.5482  -0.5345
 -0.5112  -0.5095  -0.5063  -0.4735  -0.4653  -0.4241  -0.4214  -0.4168
 -0.4085  -0.3963  -0.3893  -0.3402

 Beta MOs
 -- Occupied --
-19.4098 -19.4003 -19.3503 -19.3500 -19.3377 -19.3365 -10.4583 -10.4438
-10.4181 -10.3902 -10.3783  -1.2785  -1.2075  -1.1894  -1.1464  -1.1416
 -1.0593  -0.9087  -0.8586  -0.8039  -0.7348  -0.6899  -0.6671  -0.6652
 -0.6400  -0.6077  -0.6052  -0.5907  -0.5802  -0.5698  -0.5420  -0.5316
 -0.5085  -0.5049  -0.4836  -0.4661  -0.4599  -0.4232  -0.4207  -0.4162
 -0.4058  -0.3913  -0.3819

          Ground-State Mulliken Net Atomic Charges

     Atom                 Charge (a.u.)    Spin (a.u.)
  --------------------------------------------------------
      1 C                    -0.333639       0.006334
      2 O                    -0.487192       0.003304
      3 C                     0.208839       0.030147
      4 O                    -0.476955       0.234919
      5 C                    -0.009899       0.710446
      6 C                    -0.234287      -0.072549
      7 C                    -0.175797       0.064547
      8 O                    -0.425373       0.007596
      9 O                    -0.411521       0.001890
     10 H                     0.235986       0.002296
     11 H                     0.226858       0.002066
     12 H                     0.326036      -0.001561
     13 H                     0.333180      -0.014352
     14 H                     0.304862       0.019408
     15 H                     0.258295      -0.001754
     16 H                     0.359289      -0.000658
     17 H                     0.350771       0.000004
     18 O                    -0.091103       0.001868
     19 O                    -0.305751       0.006304
     20 H                     0.347401      -0.000255
  --------------------------------------------------------
  Sum of atomic charges =    -0.000000

                    Cartesian Multipole Moments
 -----------------------------------------------------------------
    Charge (ESU x 10^10)
                -0.0000
    Dipole Moment (Debye)
         X       8.8001      Y      -6.3797      Z       2.6699
       Tot      11.1924
    Quadrupole Moments (Debye-Ang)
        XX       6.6335     XY     -21.5409     YY     -62.4724
        XZ      -2.4153     YZ      -3.4122     ZZ     -71.3711

             Standard Nuclear Orientation (Angstroms)
    I     Atom           X                Y                Z
 ----------------------------------------------------------------
    1      C       1.8615048000     0.2398532000    -1.5855449000
    2      O       0.9483314000     1.1062802000    -2.2306752000
    3      C       2.2758295000     0.8144919000    -0.2489284000
    4      O       1.7183297000     1.8559498000     0.1328669000
    5      C       3.2750197000     0.2134923000     0.5800773000
    6      C       4.1063245000    -0.9876678000     0.3051741000
    7      C       5.4882522000    -0.6128120000    -0.2437392000
    8      O       5.2995121000     0.1122062000    -1.4334828000
    9      O       6.1190503000     0.1576749000     0.7500929000
   10      H       2.7423711000     0.0945213000    -2.2106135000
   11      H       1.4043581000    -0.7374967000    -1.4187945000
   12      H       0.7477238000     1.8078395000    -1.5919038000
   13      H       3.4845306000     0.7442801000     1.4989838000
   14      H       4.2768165000    -1.5259730000     1.2405347000
   15      H       6.0578512000    -1.5211696000    -0.4412773000
   16      H       6.1106850000     0.0696793000    -1.9525353000
   17      H       7.0670603000     0.1574047000     0.5753338000
   18      O       3.5521451000    -1.8826220000    -0.6503487000
   19      O       2.4190158000    -2.5077842000    -0.0507016000
   20      H       2.8094038000    -3.2972980000     0.3550130000
 ----------------------------------------------------------------

 Frequency:        43.43                  53.91                  74.60
 Force Cnst:      0.0086                 0.0098                 0.0227
 Red. Mass:       7.7780                 5.7357                 6.9108
 IR Intens:        1.518                  6.711                  0.901
 Frequency:       111.93                 138.44                 170.29
 Force Cnst:      0.0450                 0.0293                 0.0812
 Red. Mass:       6.1023                 2.5942                 4.7538
 IR Intens:        3.472                 35.073                 10.197
 Frequency:       201.63                 216.14                 258.62
 Force Cnst:      0.1250                 0.0362                 0.0962
 Red. Mass:       5.2188                 1.3135                 2.4404
 IR Intens:       19.746                125.785                 19.227
 Frequency:       264.28                 293.06                 310.49
 Force Cnst:      0.1551                 0.0546                 0.0699
 Red. Mass:       3.7690                 1.0793                 1.2313
 IR Intens:       50.934                254.548                169.017
 Frequency:       317.80                 346.42                 382.80
 Force Cnst:      0.0728                 0.4174                 0.6962
 Red. Mass:       1.2230                 5.9037                 8.0641
 IR Intens:      189.233                 40.257                  0.654
 Frequency:       450.50                 485.37                 546.58
 Force Cnst:      0.8160                 0.2826                 0.7659
 Red. Mass:       6.8242                 2.0357                 4.3514
 IR Intens:       12.617                  9.678                 36.038
 Frequency:       581.31                 659.20                 731.56
 Force Cnst:      1.4036                 0.6801                 1.0523
 Red. Mass:       7.0499                 2.6565                 3.3374
 IR Intens:       27.121                  9.450                 36.097
 Frequency:       796.92                 832.39                 933.02
 Force Cnst:      1.1856                 1.6565                 1.4298
 Red. Mass:       3.1684                 4.0576                 2.7876
 IR Intens:       34.712                 55.336                 22.136
 Frequency:       982.55                 999.33                1033.56
 Force Cnst:      2.0367                 1.2452                 2.7202
 Red. Mass:       3.5807                 2.1162                 4.3220
 IR Intens:        9.784                 11.772                 35.890
 Frequency:      1144.91                1189.87                1207.90
 Force Cnst:      2.3614                 0.9913                 2.9051
 Red. Mass:       3.0576                 1.1884                 3.3795
 IR Intens:      210.696                111.668                108.306
 Frequency:      1219.83                1225.43                1258.63
 Force Cnst:      1.1602                 1.3024                 2.0294
 Red. Mass:       1.3234                 1.4720                 2.1742
 IR Intens:       53.567                246.996                163.935
 Frequency:      1271.17                1277.69                1315.61
 Force Cnst:      2.7796                 1.0640                 1.4862
 Red. Mass:       2.9196                 1.1062                 1.4574
 IR Intens:      252.923                  6.998                 59.368
 Frequency:      1325.17                1379.03                1409.33
 Force Cnst:      1.7746                 1.6685                 2.1595
 Red. Mass:       1.7151                 1.4891                 1.8453
 IR Intens:       84.690                  2.887                 83.086
 Frequency:      1420.04                1421.38                1446.31
 Force Cnst:      1.5172                 1.4199                 1.7644
 Red. Mass:       1.2770                 1.1929                 1.4316
 IR Intens:       46.810                 80.499                 66.348
 Frequency:      1471.90                1494.40                1582.34
 Force Cnst:      2.1528                 2.1469                12.6068
 Red. Mass:       1.6866                 1.6317                 8.5459
 IR Intens:       60.604                  7.907                321.332
 Frequency:      3067.17                3068.84                3094.24
 Force Cnst:      5.9963                 5.8934                 6.1369
 Red. Mass:       1.0818                 1.0621                 1.0879
 IR Intens:       16.456                 17.830                 44.160
 Frequency:      3114.61                3210.57                3697.62
 Force Cnst:      6.3028                 6.6091                 8.5807
 Red. Mass:       1.1027                 1.0882                 1.0652
 IR Intens:        6.117                  2.218                198.541
 Frequency:      3748.43                3822.38                3823.14
 Force Cnst:      8.8452                 9.1840                 9.1889
 Red. Mass:       1.0685                 1.0669                 1.0670
 IR Intens:      131.711                103.083                222.444

 STANDARD THERMODYNAMIC QUANTITIES AT   298.15 K  AND     1.00 ATM

   This Molecule has  0 Imaginary Frequencies
   Zero point vibrational energy:       95.673 kcal/mol

   Atom    1 Element C  Has Mass   12.00000
   Atom    2 Element O  Has Mass   15.99491
   Atom    3 Element C  Has Mass   12.00000
   Atom    4 Element O  Has Mass   15.99491
   Atom    5 Element C  Has Mass   12.00000
   Atom    6 Element C  Has Mass   12.00000
   Atom    7 Element C  Has Mass   12.00000
   Atom    8 Element O  Has Mass   15.99491
   Atom    9 Element O  Has Mass   15.99491
   Atom   10 Element H  Has Mass    1.00783
   Atom   11 Element H  Has Mass    1.00783
   Atom   12 Element H  Has Mass    1.00783
   Atom   13 Element H  Has Mass    1.00783
   Atom   14 Element H  Has Mass    1.00783
   Atom   15 Element H  Has Mass    1.00783
   Atom   16 Element H  Has Mass    1.00783
   Atom   17 Element H  Has Mass    1.00783
   Atom   18 Element O  Has Mass   15.99491
   Atom   19 Element O  Has Mass   15.99491
   Atom   20 Element H  Has Mass    1.00783
   Molecular Mass:   165.039930 amu
   Principal axes and moments of inertia in amu*Bohr^2:
                             1           2           3
    Eigenvalues --     1268.66983  2366.60994  2789.70873
          X               0.89684     0.35506    -0.26384
          Y              -0.34892     0.93442     0.07144
          Z               0.27191     0.02799     0.96192
   Rotational Symmetry Number is   1
   The Molecule is an Asymmetric Top
   Translational Enthalpy:        0.889 kcal/mol
   Rotational Enthalpy:           0.889 kcal/mol
   Vibrational Enthalpy:        101.945 kcal/mol
   gas constant (RT):             0.592 kcal/mol
   Translational Entropy:        41.211  cal/mol.K
   Rotational Entropy:           30.505  cal/mol.K
   Vibrational Entropy:          40.463  cal/mol.K

   Total Enthalpy:              104.315 kcal/mol
   Total Entropy:               112.179  cal/mol.K
 Total job time:  26937.89s(wall), 382875.19s(cpu)
        *  Thank you very much for using Q-Chem.  Have a nice day.  *
