 Q-Chem 5.4, Q-Chem, Inc., Pleasanton, CA (2021)
 Q-Chem 5.4.1 for Intel X86 EM64T Linux

User input:
--------------------------------------------------------------
$molecule
0 2
C         1.8879030800    0.2316732951   -1.5970718369
O         1.0104062076    1.1267041774   -2.2517944401
C         2.2882823453    0.8016029186   -0.2448721249
O         1.7208178731    1.8459825285    0.1296461302
C         3.2737447357    0.1966485823    0.6045452095
C         4.1099605760   -1.0056349139    0.3224745041
C         5.4810564821   -0.6157122708   -0.2483007215
O         5.2508116311    0.1096704779   -1.4323024719
O         6.1100531554    0.1587705558    0.7444709719
H         2.7827688174    0.0647119590   -2.2055070570
H         1.4072432972   -0.7427576246   -1.4383013998
H         0.7980548525    1.8011726116   -1.5763732234
H         3.4716273008    0.7267167404    1.5313041103
H         4.2905791239   -1.5520040462    1.2562858452
H         6.0602217786   -1.5214672975   -0.4607248198
H         6.0775522180    0.1158872691   -1.9427796845
H         7.0477222772    0.2341497885    0.5004565276
O         3.5430143698   -1.8924077307   -0.6371436571
O         2.3864098023   -2.4845504618   -0.0297525170
H         2.7658853761   -3.2983065587    0.3552719551
$end

$rem
BASIS = 6-311++G(2df,2p)
GUI = 2
JOB_TYPE = Optimization
METHOD = wB97M-V
SCF_ALGORITHM = DIIS_GDM
MAX_SCF_CYCLES = 400
GEOM_OPT_MAX_CYCLES = 150
SCF_CONVERGENCE = 7
THRESH = 12
Solvent_method = SMD
$end
--------------------------------------------------------------

   20    -647.1915070758      4.37e-08  Convergence criterion met
 Total energy in the final basis set =     -647.1841223801
   18    -647.1921242639      9.08e-08  Convergence criterion met
 Total energy in the final basis set =     -647.1847262804
   19    -647.1921572802      2.98e-08  Convergence criterion met
 Total energy in the final basis set =     -647.1847497983
   19    -647.1922017199      3.08e-08  Convergence criterion met
 Total energy in the final basis set =     -647.1847927601
   19    -647.1922160707      2.74e-08  Convergence criterion met
 Total energy in the final basis set =     -647.1848054825
   19    -647.1922288493      4.72e-08  Convergence criterion met
 Total energy in the final basis set =     -647.1848156246
   19    -647.1922379558      4.53e-08  Convergence criterion met
 Total energy in the final basis set =     -647.1848212262
   19    -647.1922433173      4.68e-08  Convergence criterion met
 Total energy in the final basis set =     -647.1848246280

             Standard Nuclear Orientation (Angstroms)
    I     Atom           X                Y                Z
 ----------------------------------------------------------------
    1      C       1.8615048287     0.2398531969    -1.5855449254
    2      O       0.9483313871     1.1062802116    -2.2306752389
    3      C       2.2758294777     0.8144918912    -0.2489283890
    4      O       1.7183296726     1.8559497988     0.1328669121
    5      C       3.2750196896     0.2134923078     0.5800772958
    6      C       4.1063244736    -0.9876678443     0.3051741451
    7      C       5.4882522175    -0.6128120450    -0.2437391882
    8      O       5.2995120720     0.1122062224    -1.4334828218
    9      O       6.1190503134     0.1576749128     0.7500928803
   10      H       2.7423710851     0.0945212503    -2.2106134943
   11      H       1.4043580941    -0.7374966583    -1.4187944960
   12      H       0.7477237720     1.8078394543    -1.5919037985
   13      H       3.4845306038     0.7442800961     1.4989838119
   14      H       4.2768165029    -1.5259729878     1.2405347461
   15      H       6.0578511898    -1.5211695575    -0.4412773275
   16      H       6.1106849578     0.0696792745    -1.9525353192
   17      H       7.0670602572     0.1574046901     0.5753337614
   18      O       3.5521451495    -1.8826219515    -0.6503486644
   19      O       2.4190157574    -2.5077842415    -0.0507016211
   20      H       2.8094037983    -3.2972980209     0.3550130317
 ----------------------------------------------------------------

   19    -647.1922437274      4.54e-08  Convergence criterion met
 Total energy in the final basis set =     -647.1848254146
 Final energy is   -647.184825414605
 **  OPTIMIZATION CONVERGED  **

                    Orbital Energies (a.u.)
 --------------------------------------------------------------

 Alpha MOs
 -- Occupied --
-19.4098 -19.4004 -19.3503 -19.3501 -19.3443 -19.3366 -10.4593 -10.4429
-10.4175 -10.3902 -10.3889  -1.2787  -1.2080  -1.1975  -1.1495  -1.1418
 -1.0602  -0.9247  -0.8619  -0.8126  -0.7393  -0.6925  -0.6695  -0.6671
 -0.6425  -0.6108  -0.6089  -0.5950  -0.5861  -0.5732  -0.5482  -0.5345
 -0.5112  -0.5095  -0.5063  -0.4735  -0.4653  -0.4241  -0.4214  -0.4169
 -0.4085  -0.3963  -0.3893  -0.3402

 Beta MOs
 -- Occupied --
-19.4098 -19.4003 -19.3503 -19.3500 -19.3377 -19.3365 -10.4583 -10.4438
-10.4181 -10.3902 -10.3783  -1.2784  -1.2075  -1.1894  -1.1464  -1.1416
 -1.0592  -0.9087  -0.8586  -0.8039  -0.7348  -0.6899  -0.6671  -0.6652
 -0.6399  -0.6077  -0.6052  -0.5907  -0.5802  -0.5698  -0.5420  -0.5316
 -0.5085  -0.5049  -0.4836  -0.4661  -0.4599  -0.4232  -0.4207  -0.4162
 -0.4058  -0.3913  -0.3819

          Ground-State Mulliken Net Atomic Charges

     Atom                 Charge (a.u.)    Spin (a.u.)
  --------------------------------------------------------
      1 C                    -0.333650       0.006334
      2 O                    -0.487192       0.003303
      3 C                     0.208861       0.030159
      4 O                    -0.476956       0.234920
      5 C                    -0.009967       0.710438
      6 C                    -0.234329      -0.072558
      7 C                    -0.175766       0.064552
      8 O                    -0.425374       0.007597
      9 O                    -0.411521       0.001891
     10 H                     0.235987       0.002295
     11 H                     0.226871       0.002066
     12 H                     0.326039      -0.001560
     13 H                     0.333183      -0.014353
     14 H                     0.304869       0.019408
     15 H                     0.258292      -0.001754
     16 H                     0.359286      -0.000657
     17 H                     0.350772       0.000004
     18 O                    -0.091082       0.001867
     19 O                    -0.305791       0.006305
     20 H                     0.347471      -0.000255
  --------------------------------------------------------
  Sum of atomic charges =    -0.000000

                    Cartesian Multipole Moments
 -----------------------------------------------------------------
    Charge (ESU x 10^10)
                -0.0000
    Dipole Moment (Debye)
         X       8.8001      Y      -6.3796      Z       2.6719
       Tot      11.1928
    Quadrupole Moments (Debye-Ang)
        XX       6.6331     XY     -21.5404     YY     -62.4745
        XZ      -2.4095     YZ      -3.4193     ZZ     -71.3696

 Total job time:  2322.60s(wall), 32827.70s(cpu)
        *  Thank you very much for using Q-Chem.  Have a nice day.  *
