 Q-Chem 5.4, Q-Chem, Inc., Pleasanton, CA (2021)
 Q-Chem 5.4.1 for Intel X86 EM64T Linux

User input:
--------------------------------------------------------------
$molecule
0 2
C         2.5879293453   -1.1160763896   -1.0317896225
O         1.4129910757   -0.3420712723   -1.0137414067
C         3.5028280630   -0.5660602903    0.0711902203
O         2.9137898546   -0.8795315709    1.2959620725
C         3.7909187666    0.9165090417   -0.1005164821
C         4.7936050046    1.4524646173    0.9182817674
O         4.3548726425    1.3483274694    2.2193680852
C         5.2916541634    2.8670288430    0.6113347386
O         4.1588988750    3.7045899886    0.5654078741
O         6.2112051376    3.2904153363    1.5860352282
H         3.0857421220   -1.0439840339   -1.9961417149
H         0.9119582887   -0.5452815067   -1.8118138327
H         2.8559135886    1.4630827274   -0.0061541742
H         4.1805185593    1.0968752853   -1.1022665887
H         5.6954495416    0.8064781819    0.9228075729
H         5.8225324811    2.8803406930   -0.3396821076
H         4.4333848104    4.5589201364    0.2124947828
H         5.8218034808    3.1115670133    2.4534586864
O         2.3156594536   -2.4803192146   -0.8304874569
H         1.9858656390   -2.5911102756    0.0714691394
O         4.7213338154   -1.3437501348    0.0922292294
O         5.4057752708   -1.1837140591   -1.1500069554
H         3.2685326646   -0.2770503545    1.9683152513
H         6.1240633559   -0.5764639312   -0.9180296070
$end

$rem
BASIS = 6-311++G(2df,2p)
GUI = 2
JOB_TYPE = Frequency
METHOD = wB97M-V
SOLVENT_METHOD = SMD
SCF_ALGORITHM = DIIS_GDM
MAX_SCF_CYCLES = 400
SCF_CONVERGENCE = 7
THRESH = 12
$end
--------------------------------------------------------------

   29    -798.8699714653      5.36e-08  Convergence criterion met
 Total energy in the final basis set =     -798.8634512150
   20    -798.8699660129      8.61e-08  Convergence criterion met
 Total energy in the final basis set =     -798.8634500950
   20    -798.8699750276      8.92e-08  Convergence criterion met
 Total energy in the final basis set =     -798.8634501551
   20    -798.8699675541      8.55e-08  Convergence criterion met
 Total energy in the final basis set =     -798.8634501593
   20    -798.8699738331      8.83e-08  Convergence criterion met
 Total energy in the final basis set =     -798.8634501710
   20    -798.8699705000      8.46e-08  Convergence criterion met
 Total energy in the final basis set =     -798.8634500611
   20    -798.8699700866      9.03e-08  Convergence criterion met
 Total energy in the final basis set =     -798.8634500101
   20    -798.8699743621      8.59e-08  Convergence criterion met
 Total energy in the final basis set =     -798.8634506616
   20    -798.8699702724      8.50e-08  Convergence criterion met
 Total energy in the final basis set =     -798.8634507664
   20    -798.8699718309      8.80e-08  Convergence criterion met
 Total energy in the final basis set =     -798.8634506883
   20    -798.8699700636      8.77e-08  Convergence criterion met
 Total energy in the final basis set =     -798.8634507060
   20    -798.8699710803      8.69e-08  Convergence criterion met
 Total energy in the final basis set =     -798.8634508477
   20    -798.8699711211      8.71e-08  Convergence criterion met
 Total energy in the final basis set =     -798.8634508531
   20    -798.8699709867      8.75e-08  Convergence criterion met
 Total energy in the final basis set =     -798.8634510721
   20    -798.8699716114      8.63e-08  Convergence criterion met
 Total energy in the final basis set =     -798.8634510249

                    Orbital Energies (a.u.)
 --------------------------------------------------------------

 Alpha MOs
 -- Occupied --
-19.4043 -19.4040 -19.3981 -19.3559 -19.3477 -19.3477 -19.3469 -19.3466
-10.4645 -10.4498 -10.4474 -10.4138 -10.3509  -1.2780  -1.2138  -1.2102
 -1.1845  -1.1710  -1.1371  -1.1369  -1.0389  -0.9171  -0.8569  -0.8076
 -0.7396  -0.7230  -0.6958  -0.6826  -0.6517  -0.6430  -0.6245  -0.6018
 -0.5980  -0.5794  -0.5790  -0.5676  -0.5610  -0.5455  -0.5356  -0.5306
 -0.4967  -0.4784  -0.4672  -0.4629  -0.4496  -0.4384  -0.4342  -0.4317
 -0.4164  -0.4133  -0.4087  -0.3979  -0.3833

 Beta MOs
 -- Occupied --
-19.4040 -19.3981 -19.3819 -19.3559 -19.3477 -19.3475 -19.3469 -19.3466
-10.4646 -10.4494 -10.4474 -10.4140 -10.3503  -1.2780  -1.2112  -1.2075
 -1.1818  -1.1380  -1.1371  -1.1283  -1.0388  -0.9107  -0.8523  -0.8068
 -0.7389  -0.7128  -0.6934  -0.6784  -0.6513  -0.6409  -0.6191  -0.5954
 -0.5923  -0.5787  -0.5732  -0.5630  -0.5448  -0.5383  -0.5328  -0.5155
 -0.4796  -0.4767  -0.4619  -0.4581  -0.4478  -0.4350  -0.4321  -0.4140
 -0.4130  -0.4074  -0.3962  -0.3776

          Ground-State Mulliken Net Atomic Charges

     Atom                 Charge (a.u.)    Spin (a.u.)
  --------------------------------------------------------
      1 C                    -0.089568      -0.002752
      2 O                    -0.425237      -0.000073
      3 C                     0.147775       0.017337
      4 O                    -0.406571       0.001132
      5 C                    -0.687276      -0.034553
      6 C                     0.162307       0.074274
      7 O                    -0.159888       0.858562
      8 C                    -0.352409      -0.012288
      9 O                    -0.405547       0.005656
     10 O                    -0.421202       0.000315
     11 H                     0.306292       0.000061
     12 H                     0.335835      -0.000059
     13 H                     0.292390      -0.002838
     14 H                     0.299012       0.004223
     15 H                     0.322234       0.096464
     16 H                     0.268596      -0.001528
     17 H                     0.339048      -0.000506
     18 H                     0.346797      -0.000669
     19 O                    -0.458486      -0.000087
     20 H                     0.353020      -0.000018
     21 O                    -0.146695       0.001635
     22 O                    -0.283015      -0.000731
     23 H                     0.327990      -0.002623
     24 H                     0.334600      -0.000934
  --------------------------------------------------------
  Sum of atomic charges =    -0.000000

                    Cartesian Multipole Moments
 -----------------------------------------------------------------
    Charge (ESU x 10^10)
                -0.0000
    Dipole Moment (Debye)
         X       2.3693      Y       4.6732      Z      -2.7507
       Tot       5.9176
    Quadrupole Moments (Debye-Ang)
        XX     -56.8756     XY      21.3206     YY     -84.0466
        XZ      -9.2038     YZ      -8.5178     ZZ     -73.1875

             Standard Nuclear Orientation (Angstroms)
    I     Atom           X                Y                Z
 ----------------------------------------------------------------
    1      C       2.5879293453    -1.1160763896    -1.0317896225
    2      O       1.4129910757    -0.3420712723    -1.0137414067
    3      C       3.5028280630    -0.5660602903     0.0711902203
    4      O       2.9137898546    -0.8795315709     1.2959620725
    5      C       3.7909187666     0.9165090417    -0.1005164821
    6      C       4.7936050046     1.4524646173     0.9182817674
    7      O       4.3548726425     1.3483274694     2.2193680852
    8      C       5.2916541634     2.8670288430     0.6113347386
    9      O       4.1588988750     3.7045899886     0.5654078741
   10      O       6.2112051376     3.2904153363     1.5860352282
   11      H       3.0857421220    -1.0439840339    -1.9961417149
   12      H       0.9119582887    -0.5452815067    -1.8118138327
   13      H       2.8559135886     1.4630827274    -0.0061541742
   14      H       4.1805185593     1.0968752853    -1.1022665887
   15      H       5.6954495416     0.8064781819     0.9228075729
   16      H       5.8225324811     2.8803406930    -0.3396821076
   17      H       4.4333848104     4.5589201364     0.2124947828
   18      H       5.8218034808     3.1115670133     2.4534586864
   19      O       2.3156594536    -2.4803192146    -0.8304874569
   20      H       1.9858656390    -2.5911102756     0.0714691394
   21      O       4.7213338154    -1.3437501348     0.0922292294
   22      O       5.4057752708    -1.1837140591    -1.1500069554
   23      H       3.2685326646    -0.2770503545     1.9683152513
   24      H       6.1240633559    -0.5764639312    -0.9180296070
 ----------------------------------------------------------------

 Frequency:        42.05                  64.02                  74.46
 Force Cnst:      0.0064                 0.0178                 0.0225
 Red. Mass:       6.1092                 7.3796                 6.8806
 IR Intens:        1.040                  1.291                  1.433
 Frequency:       102.74                 120.23                 150.71
 Force Cnst:      0.0324                 0.0584                 0.0666
 Red. Mass:       5.2103                 6.8612                 4.9745
 IR Intens:        6.355                  3.382                 12.002
 Frequency:       204.56                 223.26                 249.92
 Force Cnst:      0.1301                 0.1809                 0.1270
 Red. Mass:       5.2789                 6.1597                 3.4500
 IR Intens:       10.549                  6.401                  4.999
 Frequency:       279.52                 281.70                 290.19
 Force Cnst:      0.0669                 0.1442                 0.0829
 Red. Mass:       1.4525                 3.0847                 1.6708
 IR Intens:      162.125                 44.162                126.214
 Frequency:       299.33                 317.07                 335.32
 Force Cnst:      0.0908                 0.1342                 0.1497
 Red. Mass:       1.7193                 2.2651                 2.2594
 IR Intens:      167.108                131.405                 41.261
 Frequency:       354.29                 370.05                 393.61
 Force Cnst:      0.1555                 0.1440                 0.1598
 Red. Mass:       2.1032                 1.7843                 1.7503
 IR Intens:       57.127                 48.463                210.937
 Frequency:       413.09                 463.52                 493.05
 Force Cnst:      0.1479                 0.1395                 0.7575
 Red. Mass:       1.4707                 1.1020                 5.2890
 IR Intens:      136.949                185.133                 38.327
 Frequency:       514.03                 545.07                 568.12
 Force Cnst:      0.6734                 0.9987                 0.8767
 Red. Mass:       4.3257                 5.7054                 4.6099
 IR Intens:       42.546                146.462                 18.761
 Frequency:       600.11                 705.74                 751.29
 Force Cnst:      1.1620                 1.3839                 1.1223
 Red. Mass:       5.4762                 4.7160                 3.3747
 IR Intens:       31.400                 11.480                129.260
 Frequency:       818.10                 861.29                 895.31
 Force Cnst:      1.4592                 2.2522                 1.0116
 Red. Mass:       3.7005                 5.1530                 2.1420
 IR Intens:       20.913                 21.187                 17.088
 Frequency:      1007.89                1013.60                1042.44
 Force Cnst:      1.4362                 2.9311                 2.6125
 Red. Mass:       2.3996                 4.8424                 4.0805
 IR Intens:       70.019                 49.593                 39.587
 Frequency:      1061.34                1103.18                1136.55
 Force Cnst:      1.8388                 1.7644                 1.3326
 Red. Mass:       2.7707                 2.4607                 1.7510
 IR Intens:      175.319                 38.170                 36.886
 Frequency:      1165.23                1176.65                1193.05
 Force Cnst:      1.0348                 1.4061                 1.5954
 Red. Mass:       1.2935                 1.7238                 1.9024
 IR Intens:      142.751                 97.970                188.914
 Frequency:      1218.14                1223.08                1270.74
 Force Cnst:      1.0149                 1.1637                 1.6398
 Red. Mass:       1.1608                 1.3203                 1.7236
 IR Intens:       29.777                 42.897                 66.797
 Frequency:      1272.29                1290.29                1303.67
 Force Cnst:      2.5488                 2.1990                 1.9233
 Red. Mass:       2.6725                 2.2418                 1.9207
 IR Intens:      223.682                453.703                217.915
 Frequency:      1320.89                1340.41                1354.82
 Force Cnst:      2.3031                 2.1076                 2.5767
 Red. Mass:       2.2404                 1.9910                 2.3826
 IR Intens:       28.930                 78.071                 45.915
 Frequency:      1409.15                1431.14                1436.15
 Force Cnst:      1.6638                 1.6077                 1.5794
 Red. Mass:       1.4221                 1.3323                 1.2997
 IR Intens:       91.330                103.449                 79.699
 Frequency:      1443.50                1452.38                1457.55
 Force Cnst:      1.3688                 1.9191                 1.4137
 Red. Mass:       1.1149                 1.5442                 1.1295
 IR Intens:       65.430                127.542                 75.161
 Frequency:      1494.48                2903.25                3098.38
 Force Cnst:      2.6475                 5.3280                 6.0160
 Red. Mass:       2.0119                 1.0729                 1.0636
 IR Intens:       22.756                 46.423                  2.715
 Frequency:      3110.38                3131.36                3154.43
 Force Cnst:      6.2015                 6.2865                 6.4573
 Red. Mass:       1.0880                 1.0882                 1.1014
 IR Intens:       40.512                 24.884                  3.040
 Frequency:      3689.63                3764.80                3767.36
 Force Cnst:      8.5569                 8.9218                 8.9101
 Red. Mass:       1.0668                 1.0684                 1.0655
 IR Intens:      421.080                133.739                124.299
 Frequency:      3780.58                3819.69                3824.81
 Force Cnst:      8.9747                 9.1684                 9.1942
 Red. Mass:       1.0657                 1.0666                 1.0667
 IR Intens:      126.093                149.570                142.871

 STANDARD THERMODYNAMIC QUANTITIES AT   298.15 K  AND     1.00 ATM

   This Molecule has  0 Imaginary Frequencies
   Zero point vibrational energy:      116.431 kcal/mol

   Atom    1 Element C  Has Mass   12.00000
   Atom    2 Element O  Has Mass   15.99491
   Atom    3 Element C  Has Mass   12.00000
   Atom    4 Element O  Has Mass   15.99491
   Atom    5 Element C  Has Mass   12.00000
   Atom    6 Element C  Has Mass   12.00000
   Atom    7 Element O  Has Mass   15.99491
   Atom    8 Element C  Has Mass   12.00000
   Atom    9 Element O  Has Mass   15.99491
   Atom   10 Element O  Has Mass   15.99491
   Atom   11 Element H  Has Mass    1.00783
   Atom   12 Element H  Has Mass    1.00783
   Atom   13 Element H  Has Mass    1.00783
   Atom   14 Element H  Has Mass    1.00783
   Atom   15 Element H  Has Mass    1.00783
   Atom   16 Element H  Has Mass    1.00783
   Atom   17 Element H  Has Mass    1.00783
   Atom   18 Element H  Has Mass    1.00783
   Atom   19 Element O  Has Mass   15.99491
   Atom   20 Element H  Has Mass    1.00783
   Atom   21 Element O  Has Mass   15.99491
   Atom   22 Element O  Has Mass   15.99491
   Atom   23 Element H  Has Mass    1.00783
   Atom   24 Element H  Has Mass    1.00783
   Molecular Mass:   199.045410 amu
   Principal axes and moments of inertia in amu*Bohr^2:
                             1           2           3
    Eigenvalues --     1272.77289  4091.95932  4393.65925
          X               0.44953     0.87510    -0.17925
          Y               0.82708    -0.48356    -0.28655
          Z               0.33743     0.01944     0.94115
   Rotational Symmetry Number is   1
   The Molecule is an Asymmetric Top
   Translational Enthalpy:        0.889 kcal/mol
   Rotational Enthalpy:           0.889 kcal/mol
   Vibrational Enthalpy:        123.904 kcal/mol
   gas constant (RT):             0.592 kcal/mol
   Translational Entropy:        41.770  cal/mol.K
   Rotational Entropy:           31.504  cal/mol.K
   Vibrational Entropy:          46.644  cal/mol.K

   Total Enthalpy:              126.274 kcal/mol
   Total Entropy:               119.917  cal/mol.K
 Total job time:  54545.97s(wall), 773585.68s(cpu)
        *  Thank you very much for using Q-Chem.  Have a nice day.  *
