 Q-Chem 5.4, Q-Chem, Inc., Pleasanton, CA (2021)
 Q-Chem 5.4.1 for Intel X86 EM64T Linux

User input:
--------------------------------------------------------------
$molecule
0 2
C         2.5792468399   -1.1315068441   -1.0338689140
O         1.4265348414   -0.3215729545   -1.0391568801
C         3.5063558183   -0.5618335834    0.0495539494
O         2.9043298807   -0.8448733760    1.2786783022
C         3.8155295602    0.9182448683   -0.1407454389
C         4.8197348090    1.4506611967    0.8829684462
O         4.3808785569    1.3208861397    2.1911884581
C         5.2920306755    2.8869175342    0.6234218928
O         4.1316917978    3.6868520376    0.5791565260
O         6.1774675237    3.2949928028    1.6359371484
H         3.0784247277   -1.1206779193   -2.0058797521
H         0.8950653017   -0.5946517299   -1.8051809252
H         2.8838830422    1.4823037027   -0.0597628145
H         4.2187256479    1.0825046315   -1.1451821591
H         5.7318365969    0.8150448992    0.8780058794
H         5.8504246079    2.9435121383   -0.3160033766
H         4.4115430889    4.5760879735    0.3042321264
H         5.7424326063    3.0631308060    2.4775554626
O         2.2773060186   -2.4783879376   -0.7625656926
H         1.9747750097   -2.5063128682    0.1636947256
O         4.7178331190   -1.3515473844    0.0883271813
O         5.3980289036   -1.2063927042   -1.1692911074
H         3.3060318747   -0.2485263359    1.9422332862
H         6.1271151516   -0.6036687931   -0.9295916242
$end

$rem
BASIS = 6-311++G(2df,2p)
GUI = 2
JOB_TYPE = Optimization
METHOD = wB97M-V
SCF_ALGORITHM = DIIS_GDM
MAX_SCF_CYCLES = 400
GEOM_OPT_MAX_CYCLES = 150
SCF_CONVERGENCE = 7
THRESH = 12
Solvent_method = SMD
$end
--------------------------------------------------------------

   29    -798.8687218455      5.26e-08  Convergence criterion met
 Total energy in the final basis set =     -798.8623973886
   21    -798.8697813298      4.41e-08  Convergence criterion met
 Total energy in the final basis set =     -798.8633102895
   21    -798.8693459430      5.14e-08  Convergence criterion met
 Total energy in the final basis set =     -798.8629255001
   20    -798.8697127768      8.71e-08  Convergence criterion met
 Total energy in the final basis set =     -798.8632074205
   20    -798.8696538463      5.77e-08  Convergence criterion met
 Total energy in the final basis set =     -798.8631025095
   20    -798.8699533660      9.63e-08  Convergence criterion met
 Total energy in the final basis set =     -798.8634411857
   20    -798.8699632272      8.61e-08  Convergence criterion met
 Total energy in the final basis set =     -798.8634457020
   20    -798.8699674111      6.15e-08  Convergence criterion met
 Total energy in the final basis set =     -798.8634490530
   20    -798.8699686467      7.70e-08  Convergence criterion met
 Total energy in the final basis set =     -798.8634504827

             Standard Nuclear Orientation (Angstroms)
    I     Atom           X                Y                Z
 ----------------------------------------------------------------
    1      C       2.5879293453    -1.1160763896    -1.0317896225
    2      O       1.4129910757    -0.3420712723    -1.0137414067
    3      C       3.5028280630    -0.5660602903     0.0711902203
    4      O       2.9137898546    -0.8795315709     1.2959620725
    5      C       3.7909187666     0.9165090417    -0.1005164821
    6      C       4.7936050046     1.4524646173     0.9182817674
    7      O       4.3548726425     1.3483274694     2.2193680852
    8      C       5.2916541634     2.8670288430     0.6113347386
    9      O       4.1588988750     3.7045899886     0.5654078741
   10      O       6.2112051376     3.2904153363     1.5860352282
   11      H       3.0857421220    -1.0439840339    -1.9961417149
   12      H       0.9119582887    -0.5452815067    -1.8118138327
   13      H       2.8559135886     1.4630827274    -0.0061541742
   14      H       4.1805185593     1.0968752853    -1.1022665887
   15      H       5.6954495416     0.8064781819     0.9228075729
   16      H       5.8225324811     2.8803406930    -0.3396821076
   17      H       4.4333848104     4.5589201364     0.2124947828
   18      H       5.8218034808     3.1115670133     2.4534586864
   19      O       2.3156594536    -2.4803192146    -0.8304874569
   20      H       1.9858656390    -2.5911102756     0.0714691394
   21      O       4.7213338154    -1.3437501348     0.0922292294
   22      O       5.4057752708    -1.1837140591    -1.1500069554
   23      H       3.2685326646    -0.2770503545     1.9683152513
   24      H       6.1240633559    -0.5764639312    -0.9180296070
 ----------------------------------------------------------------

   20    -798.8699714649      7.07e-08  Convergence criterion met
 Total energy in the final basis set =     -798.8634512147
 Final energy is   -798.863451214701
 **  OPTIMIZATION CONVERGED  **

                    Orbital Energies (a.u.)
 --------------------------------------------------------------

 Alpha MOs
 -- Occupied --
-19.4043 -19.4040 -19.3981 -19.3559 -19.3477 -19.3477 -19.3469 -19.3466
-10.4645 -10.4498 -10.4474 -10.4138 -10.3509  -1.2781  -1.2138  -1.2102
 -1.1845  -1.1710  -1.1371  -1.1369  -1.0388  -0.9171  -0.8569  -0.8076
 -0.7396  -0.7230  -0.6958  -0.6826  -0.6517  -0.6430  -0.6245  -0.6018
 -0.5980  -0.5794  -0.5790  -0.5676  -0.5610  -0.5455  -0.5356  -0.5306
 -0.4967  -0.4784  -0.4672  -0.4629  -0.4496  -0.4384  -0.4342  -0.4317
 -0.4164  -0.4133  -0.4087  -0.3979  -0.3833

 Beta MOs
 -- Occupied --
-19.4039 -19.3981 -19.3819 -19.3559 -19.3477 -19.3475 -19.3469 -19.3466
-10.4646 -10.4494 -10.4474 -10.4140 -10.3503  -1.2780  -1.2112  -1.2075
 -1.1818  -1.1380  -1.1371  -1.1283  -1.0388  -0.9107  -0.8523  -0.8068
 -0.7389  -0.7128  -0.6934  -0.6784  -0.6512  -0.6409  -0.6191  -0.5954
 -0.5923  -0.5787  -0.5733  -0.5630  -0.5448  -0.5383  -0.5328  -0.5155
 -0.4796  -0.4767  -0.4619  -0.4581  -0.4478  -0.4350  -0.4321  -0.4140
 -0.4130  -0.4074  -0.3962  -0.3776

          Ground-State Mulliken Net Atomic Charges

     Atom                 Charge (a.u.)    Spin (a.u.)
  --------------------------------------------------------
      1 C                    -0.089562      -0.002756
      2 O                    -0.425240      -0.000073
      3 C                     0.148086       0.017350
      4 O                    -0.406574       0.001132
      5 C                    -0.687795      -0.034564
      6 C                     0.162561       0.074273
      7 O                    -0.159879       0.858565
      8 C                    -0.352473      -0.012289
      9 O                    -0.405542       0.005656
     10 O                    -0.421199       0.000316
     11 H                     0.306279       0.000061
     12 H                     0.335837      -0.000059
     13 H                     0.292387      -0.002836
     14 H                     0.299050       0.004223
     15 H                     0.322249       0.096462
     16 H                     0.268598      -0.001528
     17 H                     0.339048      -0.000506
     18 H                     0.346800      -0.000670
     19 O                    -0.458488      -0.000087
     20 H                     0.353023      -0.000018
     21 O                    -0.146847       0.001635
     22 O                    -0.282912      -0.000731
     23 H                     0.327988      -0.002623
     24 H                     0.334605      -0.000933
  --------------------------------------------------------
  Sum of atomic charges =    -0.000000

                    Cartesian Multipole Moments
 -----------------------------------------------------------------
    Charge (ESU x 10^10)
                -0.0000
    Dipole Moment (Debye)
         X       2.3693      Y       4.6729      Z      -2.7493
       Tot       5.9167
    Quadrupole Moments (Debye-Ang)
        XX     -56.8760     XY      21.3189     YY     -84.0460
        XZ      -9.1941     YZ      -8.5172     ZZ     -73.1900

 Total job time:  4483.09s(wall), 63390.71s(cpu)
        *  Thank you very much for using Q-Chem.  Have a nice day.  *
