 Q-Chem 5.4, Q-Chem, Inc., Pleasanton, CA (2021)
 Q-Chem 5.4.1 for Intel X86 EM64T Linux

User input:
--------------------------------------------------------------
$molecule
0 2
C         2.2061888022   -0.3912348327   -0.9996898453
O         1.2227842394   -1.2870675761   -1.0007484292
C         2.3741059148    0.3616610544    0.2339615395
O         1.7635493558    0.0073435288    1.2489233895
C         3.2655976025    1.5851460072    0.2408110739
C         4.6860801315    1.3804075704   -0.2760325081
O         4.5858386057    1.3134600082   -1.7024234273
O         5.7529694518    0.6465461039   -2.2084783476
C         5.5916538362    2.5364075632    0.1587985201
O         5.8702245297    2.2937211428    1.5207790597
O         6.7611938370    2.6331063103   -0.6171970359
H         2.6711237542   -0.1069815985   -1.9367929098
H         1.1622179601   -1.7029726113   -1.8794048844
H         3.3134207865    1.9396186429    1.2734464858
H         2.7903719654    2.3715367623   -0.3616718392
H         5.1158668539    0.4421946247    0.0939896639
H         5.4699309791   -0.2887452119   -2.1413672452
H         5.0795299236    3.4973420966    0.0324199278
H         6.2710218112    3.1022812460    1.8801181792
H         7.0750637066    1.7290899968   -0.7942326548
O         3.8102632200   -1.8216709512   -0.4379108024
O         4.8058854326   -1.9042710767   -1.1570366102
$end

$rem
BASIS = 6-311++G(2df,2p)
GUI = 2
JOB_TYPE = Frequency
METHOD = wB97M-V
SCF_ALGORITHM = DIIS_GDM
MAX_SCF_CYCLES = 400
SCF_CONVERGENCE = 6
THRESH = 11
solvent_method = SMD
$end

--------------------------------------------------------------

   27    -797.5427710036      7.31e-07  Convergence criterion met
 Total energy in the final basis set =     -797.5354564220
   20    -797.5427563217      5.28e-07  Convergence criterion met
 Total energy in the final basis set =     -797.5354472995
   20    -797.5427843412      5.24e-07  Convergence criterion met
 Total energy in the final basis set =     -797.5354642379
   20    -797.5427672647      5.18e-07  Convergence criterion met
 Total energy in the final basis set =     -797.5354566514
   20    -797.5427737460      5.38e-07  Convergence criterion met
 Total energy in the final basis set =     -797.5354552259
   20    -797.5427734362      5.10e-07  Convergence criterion met
 Total energy in the final basis set =     -797.5354599662
   20    -797.5427662225      5.38e-07  Convergence criterion met
 Total energy in the final basis set =     -797.5354505290
   20    -797.5427840866      5.39e-07  Convergence criterion met
 Frequency:      -540.06                  48.66                  71.99
 Force Cnst:      1.7955                 0.0116                 0.0204
 Red. Mass:      10.4483                 8.3252                 6.6885
 IR Intens:     3623.698                  6.177                  2.329
 Frequency:        87.03                  98.24                 127.51
 Force Cnst:      0.0307                 0.0455                 0.0856
 Red. Mass:       6.8867                 8.0022                 8.9329
 IR Intens:        5.587                 11.854                  3.380
 Frequency:       138.17                 164.51                 202.68
 Force Cnst:      0.0693                 0.2065                 0.1707
 Red. Mass:       6.1582                12.9492                 7.0510
 IR Intens:       23.065                  8.967                  8.393
 Frequency:       218.32                 233.24                 265.17
 Force Cnst:      0.1521                 0.1989                 0.2855
 Red. Mass:       5.4158                 6.2059                 6.8917
 IR Intens:       12.656                 26.559                  6.048
 Frequency:       286.52                 313.39                 333.12
 Force Cnst:      0.2370                 0.3695                 0.2808
 Red. Mass:       4.9008                 6.3856                 4.2947
 IR Intens:       42.067                 48.091                 21.171
 Frequency:       385.45                 411.13                 452.68
 Force Cnst:      0.2175                 0.2083                 0.1842
 Red. Mass:       2.4848                 2.0921                 1.5253
 IR Intens:       54.469                 40.886                 55.223
 Frequency:       472.76                 482.35                 509.86
 Force Cnst:      0.2791                 0.2775                 0.2053
 Red. Mass:       2.1192                 2.0241                 1.3403
 IR Intens:       60.757                127.626                283.820
 Frequency:       533.69                 592.63                 613.63
 Force Cnst:      0.5215                 0.2517                 1.3676
 Red. Mass:       3.1075                 1.2164                 6.1644
 IR Intens:      110.552                361.316                 96.462
 Frequency:       670.04                 730.65                 796.54
 Force Cnst:      0.9919                 1.2009                 0.5822
 Red. Mass:       3.7498                 3.8179                 1.5575
 IR Intens:       78.515                 19.160                878.527
 Frequency:       844.84                 906.31                 996.70
 Force Cnst:      0.7810                 1.5472                 4.0964
 Red. Mass:       1.8572                 3.1971                 6.9988
 IR Intens:        0.399                 68.226                 42.701
 Frequency:      1025.51                1043.73                1096.48
 Force Cnst:      2.0140                 1.8985                 2.2598
 Red. Mass:       3.2503                 2.9578                 3.1902
 IR Intens:       83.576                890.228                 87.990
 Frequency:      1120.91                1180.41                1212.53
 Force Cnst:      4.5401                 2.6521                 2.8374
 Red. Mass:       6.1331                 3.2305                 3.2756
 IR Intens:     2586.197                412.472                120.562
 Frequency:      1224.43                1245.35                1259.57
 Force Cnst:      1.1580                 1.0267                 1.3219
 Red. Mass:       1.3110                 1.1236                 1.4142
 IR Intens:       63.074                416.496                 97.367
 Frequency:      1281.46                1309.83                1341.34
 Force Cnst:      1.3870                 1.7363                 1.9181
 Red. Mass:       1.4336                 1.7177                 1.8094
 IR Intens:      136.398                254.042                353.240
 Frequency:      1354.21                1375.40                1402.52
 Force Cnst:      1.8996                 1.4890                 1.7008
 Red. Mass:       1.7581                 1.3359                 1.4676
 IR Intens:      136.512                 21.538                 12.741
 Frequency:      1432.51                1444.73                1451.95
 Force Cnst:      1.3197                 1.5228                 1.4422
 Red. Mass:       1.0915                 1.2383                 1.1611
 IR Intens:       33.465                 63.035                 22.734
 Frequency:      1497.21                1541.32                1620.14
 Force Cnst:      2.1675                 4.1630                15.9799
 Red. Mass:       1.6412                 2.9742                10.3329
 IR Intens:      139.620                 38.052                560.684
 Frequency:      3015.31                3036.59                3050.16
 Force Cnst:      5.7189                 5.8985                 5.9509
 Red. Mass:       1.0676                 1.0857                 1.0856
 IR Intens:        0.943                 25.369                 46.841
 Frequency:      3096.21                3198.26                3588.04
 Force Cnst:      6.1874                 6.5925                 8.1046
 Red. Mass:       1.0955                 1.0939                 1.0685
 IR Intens:        4.165                 10.150                311.444
 Frequency:      3688.68                3698.57                3726.01
 Force Cnst:      8.5454                 8.5912                 8.7244
 Red. Mass:       1.0660                 1.0659                 1.0666
 IR Intens:      140.320                326.104                133.318

 STANDARD THERMODYNAMIC QUANTITIES AT   298.15 K  AND     1.00 ATM

   This Molecule has  1 Imaginary Frequencies
   Zero point vibrational energy:       99.423 kcal/mol

   Atom    1 Element C  Has Mass   12.00000
   Atom    2 Element O  Has Mass   15.99491
   Atom    3 Element C  Has Mass   12.00000
   Atom    4 Element O  Has Mass   15.99491
   Atom    5 Element C  Has Mass   12.00000
   Atom    6 Element C  Has Mass   12.00000
   Atom    7 Element O  Has Mass   15.99491
   Atom    8 Element O  Has Mass   15.99491
   Atom    9 Element C  Has Mass   12.00000
   Atom   10 Element O  Has Mass   15.99491
   Atom   11 Element O  Has Mass   15.99491
   Atom   12 Element H  Has Mass    1.00783
   Atom   13 Element H  Has Mass    1.00783
   Atom   14 Element H  Has Mass    1.00783
   Atom   15 Element H  Has Mass    1.00783
   Atom   16 Element H  Has Mass    1.00783
   Atom   17 Element H  Has Mass    1.00783
   Atom   18 Element H  Has Mass    1.00783
   Atom   19 Element H  Has Mass    1.00783
   Atom   20 Element H  Has Mass    1.00783
   Atom   21 Element O  Has Mass   15.99491
   Atom   22 Element O  Has Mass   15.99491
   Molecular Mass:   197.029750 amu
   Principal axes and moments of inertia in amu*Bohr^2:
                             1           2           3
    Eigenvalues --     1620.36111  3450.79283  4219.25462
          X               0.75843    -0.48506     0.43531
          Y               0.64915     0.50265    -0.57092
          Z               0.05812     0.71558     0.69610
   Rotational Symmetry Number is   1
   The Molecule is an Asymmetric Top
   Translational Enthalpy:        0.889 kcal/mol
   Rotational Enthalpy:           0.889 kcal/mol
   Vibrational Enthalpy:        106.461 kcal/mol
   gas constant (RT):             0.592 kcal/mol
   Translational Entropy:        41.739  cal/mol.K
   Rotational Entropy:           31.534  cal/mol.K
   Vibrational Entropy:          44.318  cal/mol.K

   Total Enthalpy:              108.831 kcal/mol
   Total Entropy:               117.591  cal/mol.K
 Total job time:  45647.97s(wall), 632299.01s(cpu)
        *  Thank you very much for using Q-Chem.  Have a nice day.  *
 Q-Chem 5.4, Q-Chem, Inc., Pleasanton, CA (2021)
 Q-Chem 5.4.1 for Intel X86 EM64T Linux

User input:
--------------------------------------------------------------

$rem
JOBTYPE = ts
SCF_GUESS = read
GEOM_OPT_HESSIAN = read
MAX_SCF_CYCLES = 350
GEOM_OPT_DMAX = 60
GEOM_OPT_MAX_CYCLES = 250
METHOD = wB97M-v
BASIS = 6-311++G(2df,2p)
SCF_CONVERGENCE = 7
THRESH = 12
SCF_ALGORITHM = DIIS_GDM
solvent_method = SMD
$end

$molecule
read
$end
--------------------------------------------------------------

   22    -797.5437859275      9.24e-08  Convergence criterion met
 Total energy in the final basis set =     -797.5363498917
   22    -797.5437876797      7.32e-08  Convergence criterion met
 Total energy in the final basis set =     -797.5363515703
   22    -797.5437889644      7.11e-08  Convergence criterion met
 Total energy in the final basis set =     -797.5363527647
   22    -797.5437893972      7.73e-08  Convergence criterion met
 Total energy in the final basis set =     -797.5363531416
   22    -797.5437906467      7.10e-08  Convergence criterion met
 Total energy in the final basis set =     -797.5363539795
   22    -797.5438003062      7.47e-08  Convergence criterion met
 Total energy in the final basis set =     -797.5363546927

             Standard Nuclear Orientation (Angstroms)
    I     Atom           X                Y                Z
 ----------------------------------------------------------------
    1      C       2.2089942242    -0.4055788715    -0.9799183919
    2      O       1.2235311874    -1.2871675181    -0.9798170188
    3      C       2.3997332066     0.3532745119     0.2433095938
    4      O       1.8182598656     0.0034118883     1.2713493467
    5      C       3.2829042230     1.5756507939     0.2242353393
    6      C       4.7037724403     1.3771251295    -0.2859680990
    7      O       4.6055668093     1.3190676785    -1.7099116547
    8      O       5.7442683760     0.6359511894    -2.2343427986
    9      C       5.5896060010     2.5404543564     0.1620333136
   10      O       5.8494582292     2.3157560008     1.5291530630
   11      O       6.7780392313     2.6428558577    -0.5831288693
   12      H       2.6674279664    -0.1244825723    -1.9161215723
   13      H       1.1405938728    -1.7013742189    -1.8498082613
   14      H       3.3211208759     1.9573661336     1.2416850282
   15      H       2.8029579757     2.3368496907    -0.3982047449
   16      H       5.1370725460     0.4435953461     0.0783320496
   17      H       5.4431435941    -0.2875165174    -2.2201551865
   18      H       5.0754206408     3.4922339807     0.0206913213
   19      H       6.1903934177     3.1326419146     1.9104956660
   20      H       7.1575267883     1.7615761445    -0.6915415766
   21      O       3.8152588438    -1.7746200534    -0.4143829648
   22      O       4.6898323844    -1.9701520648    -1.2477222827
 ----------------------------------------------------------------

   22    -797.5437987434      8.27e-08  Convergence criterion met
 Total energy in the final basis set =     -797.5363554340
 Final energy is   -797.536355433972
 **  OPTIMIZATION CONVERGED  **

                    Orbital Energies (a.u.)
 --------------------------------------------------------------

 Alpha MOs
 -- Occupied --
-19.4801 -19.4535 -19.4049 -19.3958 -19.3944 -19.3462 -19.3442 -19.3331
-10.4460 -10.4445 -10.4374 -10.4083 -10.3539  -1.4007  -1.2719  -1.2295
 -1.2010  -1.1745  -1.1354  -1.0553  -0.9532  -0.9140  -0.8562  -0.8092
 -0.7427  -0.6932  -0.6867  -0.6748  -0.6530  -0.6512  -0.6391  -0.6373
 -0.6285  -0.5985  -0.5865  -0.5646  -0.5620  -0.5403  -0.5318  -0.5253
 -0.5070  -0.4917  -0.4812  -0.4604  -0.4518  -0.4312  -0.4199  -0.4082
 -0.3979  -0.3951  -0.3861  -0.3718

 Beta MOs
 -- Occupied --
-19.4530 -19.4289 -19.4049 -19.3991 -19.3943 -19.3462 -19.3442 -19.3370
-10.4460 -10.4446 -10.4440 -10.4083 -10.3538  -1.3521  -1.2717  -1.2369
 -1.2011  -1.1812  -1.1354  -1.0551  -0.9191  -0.8875  -0.8583  -0.8119
 -0.7428  -0.6948  -0.6867  -0.6759  -0.6411  -0.6323  -0.6225  -0.6002
 -0.5898  -0.5752  -0.5660  -0.5647  -0.5520  -0.5420  -0.5325  -0.5290
 -0.5120  -0.4993  -0.4874  -0.4605  -0.4591  -0.4313  -0.4187  -0.4081
 -0.3946  -0.3755  -0.2941

          Ground-State Mulliken Net Atomic Charges

     Atom                 Charge (a.u.)    Spin (a.u.)
  --------------------------------------------------------
      1 C                    -0.263928      -0.435968
      2 O                    -0.285706      -0.095805
      3 C                     0.400582      -0.031936
      4 O                    -0.505415      -0.145245
      5 C                    -0.445433      -0.012188
      6 C                    -0.177966       0.014535
      7 O                    -0.060974      -0.003348
      8 O                    -0.358074       0.003647
      9 C                    -0.187211      -0.001739
     10 O                    -0.399127      -0.000031
     11 O                    -0.460610      -0.000117
     12 H                     0.309904       0.009038
     13 H                     0.362979       0.001921
     14 H                     0.232995       0.000294
     15 H                     0.258069      -0.004185
     16 H                     0.308603      -0.004362
     17 H                     0.352117       0.000641
     18 H                     0.290576      -0.000033
     19 H                     0.341426       0.000007
     20 H                     0.346159      -0.000073
     21 O                     0.038138       0.871937
     22 O                    -0.097104       0.833010
  --------------------------------------------------------
  Sum of atomic charges =    -0.000000

                    Cartesian Multipole Moments
 -----------------------------------------------------------------
    Charge (ESU x 10^10)
                -0.0000
    Dipole Moment (Debye)
         X      -0.8817      Y      -0.1351      Z      -4.1662
       Tot       4.2606
    Quadrupole Moments (Debye-Ang)
        XX     -89.5249     XY      -4.3520     YY     -70.3048
        XZ       4.2137     YZ      16.4193     ZZ     -77.4949

 Total job time:  8444.37s(wall), 118873.70s(cpu)
        *  Thank you very much for using Q-Chem.  Have a nice day.  *
