 Q-Chem 5.4, Q-Chem, Inc., Pleasanton, CA (2021)
 Q-Chem 5.4.1 for Intel X86 EM64T Linux

User input:
--------------------------------------------------------------
$molecule
0 2
C        -0.8368119879    0.0051967102    0.1729488147
C        -2.2850972109    0.0469396244   -0.2172962650
O        -3.0505913588    0.3834723126    0.9425169537
C        -0.0930668034   -1.1191681530   -0.0205358659
C         1.2773557629   -1.1485043882    0.3410336861
C         1.8588051094    0.0111482931    0.9747236691
O         3.2463272586    0.2187303310    0.8036151352
C         1.0707160563    1.2379252135    0.9915453707
C        -0.2379790126    1.2090236029    0.6772957830
H        -2.5969420368   -0.9181453422   -0.6181845913
H        -2.4276937483    0.8068118744   -0.9895612029
H        -3.9281582676    0.6495597981    0.6497963493
H        -0.5344925573   -1.9894363781   -0.4871745468
H         1.9323347505   -1.8876192357   -0.0956356604
H         1.6944396438   -0.3551302111    2.1040956423
H         3.7180792552   -0.5062660680    1.2297149410
H         1.5577897818    2.1378289950    1.3422980372
H        -0.8457785126    2.0995543736    0.7611800528
O         1.4959839991   -1.5910877137    3.0024167333
O         1.2128854785   -2.3628509390    2.0369729640
$end

$rem
BASIS = 6-311++G(2df,2p)
GUI = 2
JOB_TYPE = Frequency
METHOD = wB97M-V
SOLVENT_METHOD = SMD
SCF_ALGORITHM = DIIS_GDM
MAX_SCF_CYCLES = 400
SCF_CONVERGENCE = 7
THRESH = 12
UNRESTRICTED = 1
SYMMETRY_IGNORE = 1
$end
--------------------------------------------------------------

   24    -572.8670579101      6.95e-08  Convergence criterion met
 Total energy in the final basis set =     -572.8618423996
   23    -572.8670566573      7.30e-08  Convergence criterion met
 Total energy in the final basis set =     -572.8618412636
   23    -572.8670569041      7.35e-08  Convergence criterion met
 Total energy in the final basis set =     -572.8618412745
   23    -572.8670568533      7.57e-08  Convergence criterion met
 Total energy in the final basis set =     -572.8618413226
   23    -572.8670566478      7.16e-08  Convergence criterion met
 Total energy in the final basis set =     -572.8618411552
   23    -572.8670576378      7.58e-08  Convergence criterion met
 Total energy in the final basis set =     -572.8618419292
   23    -572.8670572893      7.20e-08  Convergence criterion met
 Total energy in the final basis set =     -572.8618419765
   23    -572.8670557325      7.38e-08  Convergence criterion met
 Total energy in the final basis set =     -572.8618417706
   23    -572.8670572281      7.37e-08  Convergence criterion met
 Total energy in the final basis set =     -572.8618417632
   23    -572.8670578787      7.44e-08  Convergence criterion met
 Total energy in the final basis set =     -572.8618423003
   23    -572.8670577708      7.26e-08  Convergence criterion met
 Total energy in the final basis set =     -572.8618423283
   23    -572.8670574672      7.47e-08  Convergence criterion met
 Total energy in the final basis set =     -572.8618419534
   23    -572.8670574008      7.52e-08  Convergence criterion met
 Total energy in the final basis set =     -572.8618418934
   23    -572.8670573603      7.39e-08  Convergence criterion met
 Total energy in the final basis set =     -572.8618417072
   23    -572.8670572651      7.06e-08  Convergence criterion met
 Total energy in the final basis set =     -572.8618418971

                    Orbital Energies (a.u.)
 --------------------------------------------------------------

 Alpha MOs
 -- Occupied --
-19.4189 -19.4140 -19.3497 -19.3401 -10.4062 -10.3948 -10.3904 -10.3739
-10.3631 -10.3512 -10.3484  -1.3269  -1.1719  -1.1574  -0.9973  -0.9265
 -0.9007  -0.8854  -0.8030  -0.7444  -0.7152  -0.6611  -0.6411  -0.6296
 -0.6104  -0.5981  -0.5902  -0.5839  -0.5671  -0.5409  -0.5319  -0.5277
 -0.4917  -0.4771  -0.4629  -0.4441  -0.4336  -0.4089  -0.3918  -0.3721
 -0.3508  -0.3242

 Beta MOs
 -- Occupied --
-19.4023 -19.3983 -19.3497 -19.3402 -10.4061 -10.3955 -10.3903 -10.3744
-10.3634 -10.3509 -10.3482  -1.2959  -1.1720  -1.1575  -0.9976  -0.9014
 -0.8984  -0.8694  -0.8028  -0.7443  -0.7154  -0.6588  -0.6374  -0.6293
 -0.6016  -0.5878  -0.5727  -0.5566  -0.5410  -0.5340  -0.5275  -0.5090
 -0.4916  -0.4747  -0.4615  -0.4441  -0.4331  -0.4041  -0.3902  -0.3476
 -0.3089

          Ground-State Mulliken Net Atomic Charges

     Atom                 Charge (a.u.)    Spin (a.u.)
  --------------------------------------------------------
      1 C                     0.514893      -0.034391
      2 C                    -0.651074      -0.001078
      3 O                    -0.407898      -0.000334
      4 C                    -0.692016       0.011645
      5 C                    -0.000003      -0.039134
      6 C                    -0.495617       0.005376
      7 O                    -0.426355       0.000207
      8 C                    -0.297794      -0.028397
      9 C                     0.123943       0.019233
     10 H                     0.229772       0.000374
     11 H                     0.188672      -0.001375
     12 H                     0.325923      -0.000431
     13 H                     0.276321      -0.001826
     14 H                     0.349051       0.001944
     15 H                     0.320390      -0.014766
     16 H                     0.353663      -0.000602
     17 H                     0.303163       0.000103
     18 H                     0.310497       0.000002
     19 O                    -0.239350       0.533615
     20 O                    -0.086181       0.549836
  --------------------------------------------------------
  Sum of atomic charges =    -0.000000

                    Cartesian Multipole Moments
 -----------------------------------------------------------------
    Charge (ESU x 10^10)
                -0.0000
    Dipole Moment (Debye)
         X      -2.3526      Y       1.6426      Z      -5.0041
       Tot       5.7683
    Quadrupole Moments (Debye-Ang)
        XX     -53.5923     XY      -5.1507     YY     -66.4610
        XZ       5.5940     YZ      10.2729     ZZ     -79.1724

             Standard Nuclear Orientation (Angstroms)
    I     Atom           X                Y                Z
 ----------------------------------------------------------------
    1      C      -0.8368119879     0.0051967102     0.1729488147
    2      C      -2.2850972109     0.0469396244    -0.2172962650
    3      O      -3.0505913588     0.3834723126     0.9425169537
    4      C      -0.0930668034    -1.1191681530    -0.0205358659
    5      C       1.2773557629    -1.1485043882     0.3410336861
    6      C       1.8588051094     0.0111482931     0.9747236691
    7      O       3.2463272586     0.2187303310     0.8036151352
    8      C       1.0707160563     1.2379252135     0.9915453707
    9      C      -0.2379790126     1.2090236029     0.6772957830
   10      H      -2.5969420368    -0.9181453422    -0.6181845913
   11      H      -2.4276937483     0.8068118744    -0.9895612029
   12      H      -3.9281582676     0.6495597981     0.6497963493
   13      H      -0.5344925573    -1.9894363781    -0.4871745468
   14      H       1.9323347505    -1.8876192357    -0.0956356604
   15      H       1.6944396438    -0.3551302111     2.1040956423
   16      H       3.7180792552    -0.5062660680     1.2297149410
   17      H       1.5577897818     2.1378289950     1.3422980372
   18      H      -0.8457785126     2.0995543736     0.7611800528
   19      O       1.4959839991    -1.5910877137     3.0024167333
   20      O       1.2128854785    -2.3628509390     2.0369729640
 ----------------------------------------------------------------

 Frequency:      -434.73                  52.34                  81.03
 Force Cnst:      0.6105                 0.0108                 0.0202
 Red. Mass:       5.4827                 6.6763                 5.2121
 IR Intens:       17.056                  2.964                 10.306
 Frequency:       102.44                 150.02                 182.59
 Force Cnst:      0.0362                 0.0797                 0.0211
 Red. Mass:       5.8505                 6.0092                 1.0727
 IR Intens:       10.637                 11.702                229.075
 Frequency:       188.62                 208.96                 233.68
 Force Cnst:      0.0269                 0.1064                 0.1533
 Red. Mass:       1.2846                 4.1365                 4.7632
 IR Intens:      180.134                 29.458                 50.528
 Frequency:       296.34                 326.94                 387.28
 Force Cnst:      0.2170                 0.2292                 0.4005
 Red. Mass:       4.1949                 3.6391                 4.5321
 IR Intens:       78.854                 43.152                 53.829
 Frequency:       430.04                 467.95                 520.53
 Force Cnst:      0.4181                 0.5535                 0.7037
 Red. Mass:       3.8371                 4.2903                 4.4081
 IR Intens:        9.956                 37.045                 87.889
 Frequency:       585.95                 626.79                 711.49
 Force Cnst:      0.5934                 1.3393                 1.1670
 Red. Mass:       2.9334                 5.7859                 3.9129
 IR Intens:        4.129                  2.277                  7.744
 Frequency:       791.19                 804.34                 810.35
 Force Cnst:      1.3109                 1.0628                 0.7495
 Red. Mass:       3.5545                 2.7881                 1.9372
 IR Intens:        6.344                 26.454                 51.314
 Frequency:       883.32                 974.35                 997.23
 Force Cnst:      0.6277                 1.1188                 0.8313
 Red. Mass:       1.3653                 2.0001                 1.4188
 IR Intens:      100.862                  7.744                 16.297
 Frequency:      1014.14                1018.63                1054.74
 Force Cnst:      1.0271                 0.8545                 3.7874
 Red. Mass:       1.6950                 1.3978                 5.7784
 IR Intens:       18.113                 14.607                117.165
 Frequency:      1105.69                1125.51                1174.70
 Force Cnst:      1.0430                 1.0216                 0.9037
 Red. Mass:       1.4480                 1.3687                 1.1115
 IR Intens:        2.444                223.008                 19.264
 Frequency:      1194.67                1204.17                1233.59
 Force Cnst:      1.2975                 1.0465                 1.2060
 Red. Mass:       1.5430                 1.2249                 1.3450
 IR Intens:      193.635                139.430                 15.277
 Frequency:      1277.68                1289.57                1312.67
 Force Cnst:      1.1055                 1.9031                 2.6157
 Red. Mass:       1.1494                 1.9423                 2.5764
 IR Intens:       38.883                 92.765                 99.470
 Frequency:      1334.62                1363.03                1405.45
 Force Cnst:      2.0657                 2.1261                 3.0737
 Red. Mass:       1.9683                 1.9423                 2.6411
 IR Intens:      343.344                336.164                105.106
 Frequency:      1445.64                1466.33                1496.46
 Force Cnst:      2.1494                 3.4373                 1.4533
 Red. Mass:       1.7456                 2.7133                 1.1015
 IR Intens:       40.581                 75.021                  8.429
 Frequency:      1506.24                1567.61                1690.19
 Force Cnst:      3.6312                 4.5491                 8.1078
 Red. Mass:       2.7165                 3.1419                 4.8170
 IR Intens:       34.074                 62.759                185.232
 Frequency:      1860.54                3046.22                3094.18
 Force Cnst:      2.5916                 5.7872                 6.2395
 Red. Mass:       1.2707                 1.0585                 1.1061
 IR Intens:      849.065                 55.136                 43.331
 Frequency:      3199.61                3200.32                3215.52
 Force Cnst:      6.5581                 6.5832                 6.6888
 Red. Mass:       1.0873                 1.0909                 1.0980
 IR Intens:        3.787                  7.163                  8.236
 Frequency:      3221.88                3816.02                3839.78
 Force Cnst:      6.6907                 9.1555                 9.2663
 Red. Mass:       1.0940                 1.0671                 1.0667
 IR Intens:        3.519                146.882                132.947

 STANDARD THERMODYNAMIC QUANTITIES AT   298.15 K  AND     1.00 ATM

   This Molecule has  1 Imaginary Frequencies
   Zero point vibrational energy:       95.194 kcal/mol

   Atom    1 Element C  Has Mass   12.00000
   Atom    2 Element C  Has Mass   12.00000
   Atom    3 Element O  Has Mass   15.99491
   Atom    4 Element C  Has Mass   12.00000
   Atom    5 Element C  Has Mass   12.00000
   Atom    6 Element C  Has Mass   12.00000
   Atom    7 Element O  Has Mass   15.99491
   Atom    8 Element C  Has Mass   12.00000
   Atom    9 Element C  Has Mass   12.00000
   Atom   10 Element H  Has Mass    1.00783
   Atom   11 Element H  Has Mass    1.00783
   Atom   12 Element H  Has Mass    1.00783
   Atom   13 Element H  Has Mass    1.00783
   Atom   14 Element H  Has Mass    1.00783
   Atom   15 Element H  Has Mass    1.00783
   Atom   16 Element H  Has Mass    1.00783
   Atom   17 Element H  Has Mass    1.00783
   Atom   18 Element H  Has Mass    1.00783
   Atom   19 Element O  Has Mass   15.99491
   Atom   20 Element O  Has Mass   15.99491
   Molecular Mass:   157.050110 amu
   Principal axes and moments of inertia in amu*Bohr^2:
                             1           2           3
    Eigenvalues --     1031.44742  2477.37203  2900.98159
          X               0.93657     0.32835    -0.12260
          Y              -0.24036     0.85629     0.45716
          Z               0.25509    -0.39869     0.88089
   Rotational Symmetry Number is   1
   The Molecule is an Asymmetric Top
   Translational Enthalpy:        0.889 kcal/mol
   Rotational Enthalpy:           0.889 kcal/mol
   Vibrational Enthalpy:        100.317 kcal/mol
   gas constant (RT):             0.592 kcal/mol
   Translational Entropy:        41.063  cal/mol.K
   Rotational Entropy:           30.384  cal/mol.K
   Vibrational Entropy:          31.937  cal/mol.K

   Total Enthalpy:              102.687 kcal/mol
   Total Entropy:               103.384  cal/mol.K
 Total job time:  68915.04s(wall), 498459.00s(cpu)
        *  Thank you very much for using Q-Chem.  Have a nice day.  *
