 Q-Chem 5.4, Q-Chem, Inc., Pleasanton, CA (2021)
 Q-Chem 5.4.1 for Intel X86 EM64T Linux

User input:
--------------------------------------------------------------
$molecule
0 2
O         5.1619664911   -0.4144549872    1.0691415111
C         3.7553238837   -0.2800476420    0.9823792433
C         3.2415362974    0.9618023148    1.6769045710
O         2.1205047414    0.9784005979    2.1652095156
C         4.1172192553    2.1411143729    1.6687841701
C         4.1271488644    3.1519010952    2.6065366874
C         3.1441990192    3.2625505587    3.7452245862
O         3.1949445100    2.1226895480    4.5799878780
O         3.4930679179    4.4204055191    4.4674492792
H         5.3789559193   -0.4223476552    2.0131322234
H         3.2328453201   -1.1410810551    1.4024124490
H         3.4937054939   -0.2044949863   -0.0747289617
H         4.8336899184    2.1951010603    0.8600395922
H         4.5369158559    4.1012508123    2.2904692908
H         2.1361923686    3.3656827374    3.3415637307
H         2.2952873607    1.8781322163    4.8233222954
H         2.7624865958    4.6364974039    5.0579955648
O         5.7685934645    2.8960070476    3.6013760422
O         6.4934108343    1.7539773805    3.3846668003
C         6.1234731221    0.7504263762    4.3292194498
O         4.9577423816    0.0823955189    3.9477300454
H         6.9499737900    0.0453050675    4.3035850585
H         6.0197268655    1.2204641105    5.3059265618
H         4.2065745750    0.6616481937    4.1788042736
$end

$rem
BASIS = 6-311++G(2df,2p)
GUI = 2
JOB_TYPE = Frequency
METHOD = wB97M-V
SOLVENT_METHOD = SMD
SCF_ALGORITHM = DIIS_GDM
MAX_SCF_CYCLES = 400
SCF_CONVERGENCE = 7
THRESH = 12
$end

--------------------------------------------------------------

   24    -761.6907440555      9.58e-08  Convergence criterion met
 Total energy in the final basis set =     -761.6831490570
   21    -761.6907423946      7.90e-08  Convergence criterion met
 Total energy in the final basis set =     -761.6831482301
   21    -761.6907443373      7.92e-08  Convergence criterion met
 Total energy in the final basis set =     -761.6831482160
   21    -761.6907447177      7.94e-08  Convergence criterion met
 Total energy in the final basis set =     -761.6831489051
   21    -761.6907431758      7.84e-08  Convergence criterion met
 Total energy in the final basis set =     -761.6831489891
   21    -761.6907430100      7.96e-08  Convergence criterion met
 Total energy in the final basis set =     -761.6831480255
   21    -761.6907430976      7.87e-08  Convergence criterion met
 Total energy in the final basis set =     -761.6831480838
   21    -761.6907441087      7.91e-08  Convergence criterion met
 Total energy in the final basis set =     -761.6831487582
   21    -761.6907440481      7.96e-08  Convergence criterion met
 Total energy in the final basis set =     -761.6831487203
   21    -761.6907443798      7.89e-08  Convergence criterion met
 Total energy in the final basis set =     -761.6831489574
   21    -761.6907435387      7.90e-08  Convergence criterion met
 Total energy in the final basis set =     -761.6831489640
 Frequency:      -783.39                  44.63                  79.09
 Force Cnst:      3.4354                 0.0096                 0.0251
 Red. Mass:       9.5011                 8.1618                 6.7991
 IR Intens:     1867.175                  0.614                 11.942
 Frequency:        89.59                 114.15                 128.22
 Force Cnst:      0.0125                 0.0359                 0.0345
 Red. Mass:       2.6477                 4.6738                 3.5587
 IR Intens:        8.700                 11.297                 15.963
 Frequency:       141.33                 147.36                 156.27
 Force Cnst:      0.0858                 0.0583                 0.0779
 Red. Mass:       7.2940                 4.5587                 5.4147
 IR Intens:        5.995                 21.744                 18.397
 Frequency:       192.14                 212.04                 248.03
 Force Cnst:      0.1234                 0.1251                 0.0835
 Red. Mass:       5.6713                 4.7228                 2.3036
 IR Intens:       20.630                 10.383                 87.891
 Frequency:       273.58                 290.00                 337.48
 Force Cnst:      0.1125                 0.2450                 0.0794
 Red. Mass:       2.5519                 4.9452                 1.1839
 IR Intens:       41.999                 29.231                203.434
 Frequency:       364.32                 413.31                 445.25
 Force Cnst:      0.3279                 0.3553                 0.4184
 Red. Mass:       4.1932                 3.5300                 3.5824
 IR Intens:       17.717                 10.141                 58.358
 Frequency:       479.24                 519.40                 532.10
 Force Cnst:      0.3901                 0.2034                 0.9334
 Red. Mass:       2.8827                 1.2800                 5.5951
 IR Intens:      149.925                148.845                 62.974
 Frequency:       591.80                 598.45                 663.36
 Force Cnst:      0.6200                 1.1700                 1.4155
 Red. Mass:       3.0047                 5.5446                 5.4596
 IR Intens:       35.111                 36.842                197.553
 Frequency:       710.83                 775.93                 797.02
 Force Cnst:      1.2234                 0.7527                 0.7589
 Red. Mass:       4.1094                 2.1219                 2.0276
 IR Intens:       37.265                 44.397                448.140
 Frequency:       827.31                 862.20                 934.37
 Force Cnst:      0.4907                 1.1538                 1.1816
 Red. Mass:       1.2168                 2.6343                 2.2971
 IR Intens:      150.610                 87.208                 38.505
 Frequency:       947.29                 985.84                1061.60
 Force Cnst:      2.4056                 1.4121                 1.1810
 Red. Mass:       4.5500                 2.4660                 1.7786
 IR Intens:      276.262                 12.437                 70.467
 Frequency:      1098.23                1134.83                1150.60
 Force Cnst:      1.0592                 1.9976                 4.6290
 Red. Mass:       1.4905                 2.6327                 5.9346
 IR Intens:       85.632                140.907                186.136
 Frequency:      1175.20                1188.92                1203.57
 Force Cnst:      1.6071                 1.2412                 1.8014
 Red. Mass:       1.9750                 1.4903                 2.1106
 IR Intens:      116.912                 79.421                140.520
 Frequency:      1221.37                1236.12                1244.78
 Force Cnst:      1.1630                 1.1893                 1.4012
 Red. Mass:       1.3232                 1.3210                 1.5349
 IR Intens:       85.354                209.835                160.738
 Frequency:      1285.12                1302.17                1365.68
 Force Cnst:      2.1416                 1.1455                 1.5553
 Red. Mass:       2.2009                 1.1466                 1.4154
 IR Intens:      243.251                  8.311                 18.985
 Frequency:      1385.86                1411.56                1417.40
 Force Cnst:      1.5184                 1.4628                 1.5449
 Red. Mass:       1.3418                 1.2460                 1.3051
 IR Intens:       29.444                 43.438                 84.016
 Frequency:      1428.39                1447.95                1451.64
 Force Cnst:      1.5587                 1.4779                 1.4704
 Red. Mass:       1.2966                 1.1964                 1.1843
 IR Intens:       99.111                 18.249                 29.198
 Frequency:      1465.75                1485.92                1532.18
 Force Cnst:      2.2795                 1.4431                 5.3395
 Red. Mass:       1.8008                 1.1093                 3.8604
 IR Intens:       70.563                  6.994                 41.456
 Frequency:      1704.85                3062.02                3086.47
 Force Cnst:     18.4677                 5.8460                 6.0934
 Red. Mass:      10.7843                 1.0583                 1.0856
 IR Intens:      536.896                 39.744                 18.608
 Frequency:      3091.14                3110.94                3170.41
 Force Cnst:      5.9516                 6.3074                 6.5893
 Red. Mass:       1.0572                 1.1062                 1.1126
 IR Intens:       91.435                 14.358                 18.749
 Frequency:      3195.94                3207.75                3552.14
 Force Cnst:      6.5405                 6.6058                 7.9384
 Red. Mass:       1.0868                 1.0896                 1.0678
 IR Intens:        0.513                 14.518                717.905
 Frequency:      3726.41                3823.57                3832.28
 Force Cnst:      8.7215                 9.1899                 9.2315
 Red. Mass:       1.0660                 1.0669                 1.0669
 IR Intens:      320.550                131.011                182.616

 STANDARD THERMODYNAMIC QUANTITIES AT   298.15 K  AND     1.00 ATM

   This Molecule has  1 Imaginary Frequencies
   Zero point vibrational energy:      116.025 kcal/mol

   Atom    1 Element O  Has Mass   15.99491
   Atom    2 Element C  Has Mass   12.00000
   Atom    3 Element C  Has Mass   12.00000
   Atom    4 Element O  Has Mass   15.99491
   Atom    5 Element C  Has Mass   12.00000
   Atom    6 Element C  Has Mass   12.00000
   Atom    7 Element C  Has Mass   12.00000
   Atom    8 Element O  Has Mass   15.99491
   Atom    9 Element O  Has Mass   15.99491
   Atom   10 Element H  Has Mass    1.00783
   Atom   11 Element H  Has Mass    1.00783
   Atom   12 Element H  Has Mass    1.00783
   Atom   13 Element H  Has Mass    1.00783
   Atom   14 Element H  Has Mass    1.00783
   Atom   15 Element H  Has Mass    1.00783
   Atom   16 Element H  Has Mass    1.00783
   Atom   17 Element H  Has Mass    1.00783
   Atom   18 Element O  Has Mass   15.99491
   Atom   19 Element O  Has Mass   15.99491
   Atom   20 Element C  Has Mass   12.00000
   Atom   21 Element O  Has Mass   15.99491
   Atom   22 Element H  Has Mass    1.00783
   Atom   23 Element H  Has Mass    1.00783
   Atom   24 Element H  Has Mass    1.00783
   Molecular Mass:   195.050500 amu
   Principal axes and moments of inertia in amu*Bohr^2:
                             1           2           3
    Eigenvalues --     1804.49980  2564.41673  3361.24206
          X              -0.11038     0.91793    -0.38108
          Y               0.80028    -0.14528    -0.58176
          Z               0.58937     0.36919     0.71857
   Rotational Symmetry Number is   1
   The Molecule is an Asymmetric Top
   Translational Enthalpy:        0.889 kcal/mol
   Rotational Enthalpy:           0.889 kcal/mol
   Vibrational Enthalpy:        123.183 kcal/mol
   gas constant (RT):             0.592 kcal/mol
   Translational Entropy:        41.709  cal/mol.K
   Rotational Entropy:           31.120  cal/mol.K
   Vibrational Entropy:          45.243  cal/mol.K

   Total Enthalpy:              125.553 kcal/mol
   Total Entropy:               118.072  cal/mol.K
 Total job time:  64510.99s(wall), 911220.78s(cpu)
        *  Thank you very much for using Q-Chem.  Have a nice day.  *
 Q-Chem 5.4, Q-Chem, Inc., Pleasanton, CA (2021)
 Q-Chem 5.4.1 for Intel X86 EM64T Linux

User input:
--------------------------------------------------------------

$molecule
read
$end

$rem
JOBTYPE            rpath
SCF_GUESS          read
RPATH_MAX_CYCLES   30
BASIS = 6-311++G(2df,2p)
METHOD = wB97M-V
SOLVENT_METHOD = SMD
SCF_ALGORITHM = DIIS_GDM
SCF_CONVERGENCE = 7
THRESH = 12
$end
--------------------------------------------------------------

   21    -761.6907440567      7.91e-08  Convergence criterion met
 Total energy in the final basis set =     -761.6831490582
   21    -761.6936528737      4.43e-08  Convergence criterion met
 Total energy in the final basis set =     -761.6860866711
   20    -761.6936516203      8.63e-08  Convergence criterion met
 Total energy in the final basis set =     -761.6860726358
   20    -761.6936732035      8.29e-08  Convergence criterion met
 Total energy in the final basis set =     -761.6861022556

                    Orbital Energies (a.u.)
 --------------------------------------------------------------

 Alpha MOs
 -- Occupied --
-19.4035 -19.3985 -19.3562 -19.3481 -19.3460 -19.3456 -19.3410 -10.4608
-10.4492 -10.4362 -10.4148 -10.3929 -10.3897  -1.2676  -1.2102  -1.1957
 -1.1694  -1.1601  -1.1427  -1.0155  -0.9416  -0.8655  -0.8182  -0.7814
 -0.7421  -0.6802  -0.6698  -0.6588  -0.6502  -0.6295  -0.6162  -0.6037
 -0.5925  -0.5864  -0.5724  -0.5518  -0.5393  -0.5341  -0.5154  -0.5099
 -0.5020  -0.4849  -0.4701  -0.4548  -0.4379  -0.4308  -0.4153  -0.4113
 -0.3970  -0.3921  -0.3694  -0.3438

 Beta MOs
 -- Occupied --
-19.4029 -19.3893 -19.3563 -19.3480 -19.3457 -19.3417 -19.3407 -10.4607
-10.4502 -10.4362 -10.4170 -10.3929 -10.3799  -1.2604  -1.2100  -1.1899
 -1.1675  -1.1591  -1.1427  -1.0042  -0.9282  -0.8626  -0.8126  -0.7797
 -0.7389  -0.6782  -0.6693  -0.6571  -0.6474  -0.6256  -0.6119  -0.5998
 -0.5889  -0.5828  -0.5654  -0.5407  -0.5355  -0.5290  -0.5143  -0.4967
 -0.4905  -0.4827  -0.4669  -0.4520  -0.4363  -0.4273  -0.4119  -0.4097
 -0.3847  -0.3731  -0.3622

          Ground-State Mulliken Net Atomic Charges

     Atom                 Charge (a.u.)    Spin (a.u.)
  --------------------------------------------------------
      1 O                    -0.415163       0.005567
      2 C                    -0.492527       0.004274
      3 C                     0.342198      -0.032338
      4 O                    -0.426363       0.142671
      5 C                    -0.309319       0.662042
      6 C                     0.305822      -0.107141
      7 C                    -0.430792       0.009589
      8 O                    -0.422152      -0.002041
      9 O                    -0.440658      -0.000054
     10 H                     0.342792       0.001141
     11 H                     0.243404      -0.000903
     12 H                     0.218755      -0.000338
     13 H                     0.319492      -0.007218
     14 H                     0.365227       0.017868
     15 H                     0.282954      -0.004589
     16 H                     0.342293       0.000680
     17 H                     0.336872       0.000236
     18 O                    -0.268737       0.279687
     19 O                    -0.094235       0.029431
     20 C                    -0.262477      -0.001254
     21 O                    -0.363099       0.001980
     22 H                     0.222784      -0.000123
     23 H                     0.251914      -0.000149
     24 H                     0.351018       0.000982
  --------------------------------------------------------
  Sum of atomic charges =    -0.000000

                    Cartesian Multipole Moments
 -----------------------------------------------------------------
    Charge (ESU x 10^10)
                -0.0000
    Dipole Moment (Debye)
         X      -4.9752      Y       1.2194      Z       0.9262
       Tot       5.2055
    Quadrupole Moments (Debye-Ang)
        XX    -120.6171     XY     -13.5835     YY     -75.3844
        XZ     -14.4942     YZ       0.7779     ZZ     -63.7815

             Standard Nuclear Orientation (Angstroms)
    I     Atom           X                Y                Z
 ----------------------------------------------------------------
    1      O       5.1618320098    -0.4145468594     1.0689693881
    2      C       3.7554468478    -0.2810087636     0.9809842673
    3      C       3.2392097197     0.9620031525     1.6720480919
    4      O       2.1212391043     0.9820787550     2.1661092274
    5      C       4.1239930489     2.1224993371     1.6603373920
    6      C       4.2212008976     3.1404244090     2.6777737735
    7      C       3.1543200865     3.2624990972     3.7518615277
    8      O       3.1940875560     2.1230448878     4.5835126015
    9      O       3.4918564674     4.4229077282     4.4715659230
   10      H       5.3787527948    -0.4220356548     2.0135035567
   11      H       3.2324703377    -1.1411168777     1.4026757023
   12      H       3.4938162853    -0.2052099915    -0.0755817354
   13      H       4.8384960764     2.1907998625     0.8570868492
   14      H       4.5238167425     4.1063761328     2.2840019077
   15      H       2.1473370738     3.3641958367     3.3330992893
   16      H       2.2938737002     1.8780843018     4.8231867979
   17      H       2.7601577084     4.6375224365     5.0597587768
   18      O       5.6830581332     2.9202281653     3.5669055041
   19      O       6.4781276112     1.7465296530     3.3704494049
   20      C       6.1232923825     0.7599947904     4.3210843782
   21      O       4.9548585988     0.0792210938     3.9504192974
   22      H       6.9490479711     0.0487019450     4.3025920298
   23      H       6.0191121126     1.2207490136     5.3044275051
   24      H       4.2060818701     0.6593831294     4.1803616045
 ----------------------------------------------------------------
