 Q-Chem 5.4, Q-Chem, Inc., Pleasanton, CA (2021)
 Q-Chem 5.4.1 for Intel X86 EM64T Linux

User input:
--------------------------------------------------------------
$molecule
0 2
C         1.0772232420    4.4289839745    1.5148419035
C         1.2055431599    2.9925917970    1.5741958238
C         0.0304248425    2.1989088932    1.6215360444
C        -1.1923921001    2.7898579682    1.5614100356
C        -1.3406512495    4.1987604589    1.3702272366
C        -0.2556027687    4.9962832325    1.2682828054
C        -0.3568746666    6.4694238349    1.0152607469
H         1.1399281566    4.6122785171    2.6952650242
H         2.1450437785    2.5467925744    1.2833954646
H         0.1223949119    1.1228983340    1.6638316897
H        -2.0827732715    2.1764145633    1.5958255842
H        -2.3313526865    4.6225691873    1.2740701454
H        -1.4024988122    6.7691755725    0.9555991540
O         0.3449192042    6.8393652898   -0.1811835785
H         0.1196957258    7.0268390278    1.8212560870
H        -0.1034635167    6.4272182090   -0.9287678165
O         2.1932842632    5.1059282303    0.9716510898
H         1.8598480767    5.7572649473    0.3343041662
O         1.8384561760    2.8541641993    3.5411988980
O         1.6464158345    4.0053068889    4.0358557955
$end

$rem
BASIS = 6-311++G(2df,2p)
GUI = 2
JOB_TYPE = Frequency
METHOD = wB97M-V
SOLVENT_METHOD = SMD
SCF_ALGORITHM = DIIS_GDM
MAX_SCF_CYCLES = 400
SCF_CONVERGENCE = 7
THRESH = 12
UNRESTRICTED = 1
SYMMETRY_IGNORE = 1
$end
--------------------------------------------------------------

   24    -572.8692839302      9.42e-08  Convergence criterion met
 Total energy in the final basis set =     -572.8644345757
   23    -572.8692844002      9.50e-08  Convergence criterion met
 Total energy in the final basis set =     -572.8644334473
   23    -572.8692815353      9.39e-08  Convergence criterion met
 Total energy in the final basis set =     -572.8644335259
   23    -572.8692835971      9.56e-08  Convergence criterion met
 Total energy in the final basis set =     -572.8644332890
   23    -572.8692822315      9.43e-08  Convergence criterion met
 Total energy in the final basis set =     -572.8644337372
   23    -572.8692824484      9.52e-08  Convergence criterion met
 Total energy in the final basis set =     -572.8644339383
   23    -572.8692844095      9.77e-08  Convergence criterion met
 Total energy in the final basis set =     -572.8644341503
   23    -572.8692827461      9.39e-08  Convergence criterion met
 Total energy in the final basis set =     -572.8644343362
   23    -572.8692836501      9.42e-08  Convergence criterion met
 Total energy in the final basis set =     -572.8644343890
   23    -572.8692837208      9.37e-08  Convergence criterion met
 Total energy in the final basis set =     -572.8644343139
   23    -572.8692840428      9.68e-08  Convergence criterion met
 Total energy in the final basis set =     -572.8644347409
   23    -572.8692833826      9.38e-08  Convergence criterion met
 Total energy in the final basis set =     -572.8644340884
   23    -572.8692828653      9.61e-08  Convergence criterion met
 Total energy in the final basis set =     -572.8644334506
   23    -572.8692833133      9.41e-08  Convergence criterion met
 Total energy in the final basis set =     -572.8644339123
   23    -572.8692840375      9.50e-08  Convergence criterion met
 Total energy in the final basis set =     -572.8644347295

                    Orbital Energies (a.u.)
 --------------------------------------------------------------

 Alpha MOs
 -- Occupied --
-19.4193 -19.4135 -19.3491 -19.3431 -10.4072 -10.3956 -10.3943 -10.3725
-10.3644 -10.3513 -10.3497  -1.3278  -1.1759  -1.1572  -0.9960  -0.9283
 -0.9022  -0.8802  -0.8098  -0.7407  -0.7248  -0.6608  -0.6418  -0.6240
 -0.6133  -0.6034  -0.5915  -0.5752  -0.5595  -0.5528  -0.5382  -0.5225
 -0.4887  -0.4855  -0.4585  -0.4514  -0.4440  -0.4016  -0.3975  -0.3717
 -0.3506  -0.3218

 Beta MOs
 -- Occupied --
-19.4029 -19.3976 -19.3492 -19.3431 -10.4071 -10.3956 -10.3951 -10.3728
-10.3649 -10.3510 -10.3495  -1.2968  -1.1760  -1.1572  -0.9963  -0.9125
 -0.8828  -0.8723  -0.8095  -0.7406  -0.7248  -0.6608  -0.6332  -0.6231
 -0.6131  -0.5763  -0.5719  -0.5579  -0.5524  -0.5377  -0.5185  -0.5131
 -0.4873  -0.4824  -0.4572  -0.4510  -0.4442  -0.3977  -0.3951  -0.3466
 -0.3076

          Ground-State Mulliken Net Atomic Charges

     Atom                 Charge (a.u.)    Spin (a.u.)
  --------------------------------------------------------
      1 C                    -0.421765      -0.003193
      2 C                    -0.018302      -0.041994
      3 C                    -0.314779       0.018203
      4 C                    -0.496022      -0.034173
      5 C                    -0.480818       0.014006
      6 C                     0.577260      -0.026297
      7 C                    -0.440210       0.003890
      8 H                     0.345120      -0.013751
      9 H                     0.345270       0.001958
     10 H                     0.298541      -0.001146
     11 H                     0.289820       0.000520
     12 H                     0.292538      -0.000290
     13 H                     0.243323       0.000069
     14 O                    -0.364233      -0.000215
     15 H                     0.240585      -0.001140
     16 H                     0.332817      -0.000064
     17 O                    -0.461571      -0.000483
     18 H                     0.344548       0.000048
     19 O                    -0.056668       0.546048
     20 O                    -0.255453       0.538005
  --------------------------------------------------------
  Sum of atomic charges =    -0.000000

                    Cartesian Multipole Moments
 -----------------------------------------------------------------
    Charge (ESU x 10^10)
                -0.0000
    Dipole Moment (Debye)
         X      -6.5588      Y      -0.1441      Z      -5.1223
       Tot       8.3232
    Quadrupole Moments (Debye-Ang)
        XX     -71.0168     XY     -30.8457     YY     -63.0966
        XZ     -15.3528     YZ     -18.6453     ZZ     -89.1662

             Standard Nuclear Orientation (Angstroms)
    I     Atom           X                Y                Z
 ----------------------------------------------------------------
    1      C       1.0772232420     4.4289839745     1.5148419035
    2      C       1.2055431599     2.9925917970     1.5741958238
    3      C       0.0304248425     2.1989088932     1.6215360444
    4      C      -1.1923921001     2.7898579682     1.5614100356
    5      C      -1.3406512495     4.1987604589     1.3702272366
    6      C      -0.2556027687     4.9962832325     1.2682828054
    7      C      -0.3568746666     6.4694238349     1.0152607469
    8      H       1.1399281566     4.6122785171     2.6952650242
    9      H       2.1450437785     2.5467925744     1.2833954646
   10      H       0.1223949119     1.1228983340     1.6638316897
   11      H      -2.0827732715     2.1764145633     1.5958255842
   12      H      -2.3313526865     4.6225691873     1.2740701454
   13      H      -1.4024988122     6.7691755725     0.9555991540
   14      O       0.3449192042     6.8393652898    -0.1811835785
   15      H       0.1196957258     7.0268390278     1.8212560870
   16      H      -0.1034635167     6.4272182090    -0.9287678165
   17      O       2.1932842632     5.1059282303     0.9716510898
   18      H       1.8598480767     5.7572649473     0.3343041662
   19      O       1.8384561760     2.8541641993     3.5411988980
   20      O       1.6464158345     4.0053068889     4.0358557955
 ----------------------------------------------------------------

 Frequency:      -420.52                  67.00                  93.55
 Force Cnst:      0.6213                 0.0178                 0.0252
 Red. Mass:       5.9634                 6.7173                 4.8797
 IR Intens:       36.137                  2.664                  9.055
 Frequency:       115.10                 174.18                 206.75
 Force Cnst:      0.0533                 0.0731                 0.1669
 Red. Mass:       6.8220                 4.0871                 6.6290
 IR Intens:        5.048                  3.139                 25.857
 Frequency:       226.41                 274.81                 314.62
 Force Cnst:      0.2347                 0.1545                 0.1266
 Red. Mass:       7.7711                 3.4713                 2.1714
 IR Intens:       71.062                  6.002                103.564
 Frequency:       380.55                 400.70                 423.35
 Force Cnst:      0.1257                 0.4951                 0.3717
 Red. Mass:       1.4736                 5.2333                 3.5197
 IR Intens:       25.864                117.178                 74.621
 Frequency:       465.74                 515.21                 532.94
 Force Cnst:      0.1570                 0.4861                 0.7986
 Red. Mass:       1.2286                 3.1084                 4.7720
 IR Intens:      273.399                 32.858                 20.521
 Frequency:       555.86                 629.42                 692.65
 Force Cnst:      0.8156                 1.1883                 1.3043
 Red. Mass:       4.4800                 5.0908                 4.6144
 IR Intens:       67.733                 27.313                  2.366
 Frequency:       778.32                 799.01                 853.32
 Force Cnst:      0.8750                 0.5730                 1.5228
 Red. Mass:       2.4516                 1.5233                 3.5496
 IR Intens:       30.815                199.624                 18.275
 Frequency:       916.55                 970.98                 995.35
 Force Cnst:      0.7311                 0.8465                 0.8974
 Red. Mass:       1.4770                 1.5239                 1.5374
 IR Intens:       14.698                 12.296                 67.280
 Frequency:      1023.91                1035.33                1050.14
 Force Cnst:      2.5626                 0.8658                 1.4404
 Red. Mass:       4.1487                 1.3709                 2.2168
 IR Intens:      132.019                  4.598                 48.526
 Frequency:      1079.32                1119.40                1176.55
 Force Cnst:      1.3831                 1.0206                 0.8972
 Red. Mass:       2.0152                 1.3824                 1.1000
 IR Intens:        4.866                 55.846                  8.186
 Frequency:      1190.43                1218.58                1249.40
 Force Cnst:      1.0087                 1.1073                 1.7466
 Red. Mass:       1.2082                 1.2657                 1.8991
 IR Intens:      185.096                127.009                156.825
 Frequency:      1295.79                1306.60                1337.61
 Force Cnst:      1.7289                 3.0133                 1.7874
 Red. Mass:       1.7477                 2.9957                 1.6955
 IR Intens:       27.324                131.383                 87.406
 Frequency:      1358.01                1384.10                1406.32
 Force Cnst:      2.6555                 1.3586                 1.5017
 Red. Mass:       2.4440                 1.2037                 1.2888
 IR Intens:      496.748                 99.489                 95.767
 Frequency:      1446.91                1466.74                1480.20
 Force Cnst:      2.7337                 2.6776                 1.4195
 Red. Mass:       2.2162                 2.1124                 1.0996
 IR Intens:       41.562                 62.285                 12.720
 Frequency:      1480.96                1588.41                1685.96
 Force Cnst:      4.2409                 5.5841                 8.1898
 Red. Mass:       3.2819                 3.7565                 4.8903
 IR Intens:       61.945                 47.235                110.838
 Frequency:      1888.35                3076.51                3126.83
 Force Cnst:      2.5431                 5.8987                 6.3901
 Red. Mass:       1.2104                 1.0578                 1.1093
 IR Intens:      836.940                 41.264                 20.691
 Frequency:      3195.69                3205.04                3215.35
 Force Cnst:      6.5491                 6.6024                 6.6667
 Red. Mass:       1.0884                 1.0909                 1.0945
 IR Intens:        6.887                  7.238                 15.082
 Frequency:      3224.53                3664.91                3817.11
 Force Cnst:      6.7140                 8.4483                 9.1569
 Red. Mass:       1.0960                 1.0676                 1.0667
 IR Intens:        3.118                511.382                119.473

 STANDARD THERMODYNAMIC QUANTITIES AT   298.15 K  AND     1.00 ATM

   This Molecule has  1 Imaginary Frequencies
   Zero point vibrational energy:       96.035 kcal/mol

   Atom    1 Element C  Has Mass   12.00000
   Atom    2 Element C  Has Mass   12.00000
   Atom    3 Element C  Has Mass   12.00000
   Atom    4 Element C  Has Mass   12.00000
   Atom    5 Element C  Has Mass   12.00000
   Atom    6 Element C  Has Mass   12.00000
   Atom    7 Element C  Has Mass   12.00000
   Atom    8 Element H  Has Mass    1.00783
   Atom    9 Element H  Has Mass    1.00783
   Atom   10 Element H  Has Mass    1.00783
   Atom   11 Element H  Has Mass    1.00783
   Atom   12 Element H  Has Mass    1.00783
   Atom   13 Element H  Has Mass    1.00783
   Atom   14 Element O  Has Mass   15.99491
   Atom   15 Element H  Has Mass    1.00783
   Atom   16 Element H  Has Mass    1.00783
   Atom   17 Element O  Has Mass   15.99491
   Atom   18 Element H  Has Mass    1.00783
   Atom   19 Element O  Has Mass   15.99491
   Atom   20 Element O  Has Mass   15.99491
   Molecular Mass:   157.050110 amu
   Principal axes and moments of inertia in amu*Bohr^2:
                             1           2           3
    Eigenvalues --     1147.70976  2010.28383  2559.06471
          X              -0.25478     0.85935    -0.44340
          Y               0.76950     0.45787     0.44523
          Z              -0.58563     0.22776     0.77792
   Rotational Symmetry Number is   1
   The Molecule is an Asymmetric Top
   Translational Enthalpy:        0.889 kcal/mol
   Rotational Enthalpy:           0.889 kcal/mol
   Vibrational Enthalpy:        100.722 kcal/mol
   gas constant (RT):             0.592 kcal/mol
   Translational Entropy:        41.063  cal/mol.K
   Rotational Entropy:           30.158  cal/mol.K
   Vibrational Entropy:          28.022  cal/mol.K

   Total Enthalpy:              103.092 kcal/mol
   Total Entropy:                99.243  cal/mol.K
 Total job time:  64118.13s(wall), 496893.37s(cpu)
        *  Thank you very much for using Q-Chem.  Have a nice day.  *
