 Q-Chem 5.4, Q-Chem, Inc., Pleasanton, CA (2021)
 Q-Chem 5.4.1 for Intel X86 EM64T Linux

User input:
--------------------------------------------------------------
$molecule
-1 2
C    3.0566807   -0.6440855   -1.2434678
O    1.6708130   -0.4214322   -1.1323478
C    3.5731200   -1.0625794    0.1400414
O    3.0903007   -2.3586694    0.3636560
C    3.1525753   -0.0599283    1.2170720
C    3.9357118   -0.0590888    2.5309354
O    5.2147723    0.2510215    2.4857449
H    3.5732325    0.2611511   -1.5586033
H    1.3761075    0.0256945   -1.9337089
H    2.1014229   -0.2456045    1.4298959
H    3.2216433    0.9521538    0.8165849
H    3.3530913    0.4553904    3.3051097
O    3.3462661   -1.6214513   -2.2121262
H    3.0428731   -2.4733526   -1.8699843
O    4.9927252   -1.2430738    0.0560527
O    5.6354988    0.0346103    0.0431022
H    3.3361366   -2.6313002    1.2569913
H    5.6002278    0.2300318    1.0581701
O    3.8400394   -1.5438193    3.0689214
O    2.6931132   -1.7961176    3.6279366
$end

$rem
BASIS = 6-311++G(2df,2p)
GUI = 2
JOB_TYPE = Frequency
METHOD = wB97M-V
SOLVENT_METHOD = SMD
SCF_ALGORITHM = DIIS_GDM
MAX_SCF_CYCLES = 400
SCF_CONVERGENCE = 7
THRESH = 12
$end
--------------------------------------------------------------

   22    -759.0338499868      3.83e-08  Convergence criterion met
 Total energy in the final basis set =     -759.0291831179
   20    -759.0338467793      9.54e-08  Convergence criterion met
 Total energy in the final basis set =     -759.0291820747
   20    -759.0338514378      9.63e-08  Convergence criterion met
 Total energy in the final basis set =     -759.0291819945
   20    -759.0338462396      9.62e-08  Convergence criterion met
 Total energy in the final basis set =     -759.0291819015
   20    -759.0338515584      9.53e-08  Convergence criterion met
 Total energy in the final basis set =     -759.0291819114
   20    -759.0338452225      9.64e-08  Convergence criterion met
 Total energy in the final basis set =     -759.0291820693
   20    -759.0338529311      9.53e-08  Convergence criterion met
 Total energy in the final basis set =     -759.0291821194
   20    -759.0338531604      9.62e-08  Convergence criterion met
 Total energy in the final basis set =     -759.0291827798
   20    -759.0338499703      9.13e-08  Convergence criterion met
 Total energy in the final basis set =     -759.0291829770
   20    -759.0338493089      9.23e-08  Convergence criterion met
 Total energy in the final basis set =     -759.0291823849
   20    -759.0338492700      9.87e-08  Convergence criterion met
 Total energy in the final basis set =     -759.0291824562
   20    -759.0338498894      9.39e-08  Convergence criterion met
 Total energy in the final basis set =     -759.0291829518
   20    -759.0338498527      9.63e-08  Convergence criterion met
 Total energy in the final basis set =     -759.0291830525
   20    -759.0338499290      9.25e-08  Convergence criterion met
 Total energy in the final basis set =     -759.0291829241
   20    -759.0338496782      9.28e-08  Convergence criterion met
 Total energy in the final basis set =     -759.0291829451

                    Orbital Energies (a.u.)
 --------------------------------------------------------------

 Alpha MOs
 -- Occupied --
-19.4342 -19.3990 -19.3888 -19.3603 -19.3530 -19.3449 -19.3436 -19.2750
-10.4580 -10.4434 -10.4328 -10.3373  -1.3172  -1.2587  -1.2053  -1.1736
 -1.1342  -1.1142  -1.0105  -0.9572  -0.8913  -0.8248  -0.7441  -0.7134
 -0.6811  -0.6449  -0.6357  -0.6265  -0.6058  -0.5920  -0.5848  -0.5694
 -0.5677  -0.5404  -0.5289  -0.5204  -0.5046  -0.4816  -0.4722  -0.4509
 -0.4417  -0.4278  -0.4106  -0.4072  -0.3948  -0.3838  -0.3716  -0.3515
 -0.3397

 Beta MOs
 -- Occupied --
-19.4226 -19.3888 -19.3813 -19.3603 -19.3530 -19.3449 -19.3436 -19.2751
-10.4580 -10.4434 -10.4331 -10.3372  -1.2898  -1.2585  -1.2053  -1.1735
 -1.1342  -1.1127  -1.0103  -0.9238  -0.8882  -0.8226  -0.7424  -0.7097
 -0.6805  -0.6405  -0.6330  -0.6211  -0.5833  -0.5818  -0.5686  -0.5661
 -0.5535  -0.5384  -0.5258  -0.5138  -0.4808  -0.4768  -0.4717  -0.4504
 -0.4411  -0.4276  -0.4075  -0.4019  -0.3927  -0.3734  -0.3446  -0.3369

          Ground-State Mulliken Net Atomic Charges

     Atom                 Charge (a.u.)    Spin (a.u.)
  --------------------------------------------------------
      1 C                    -0.070726       0.001083
      2 O                    -0.426461      -0.000048
      3 C                     0.212403       0.007077
      4 O                    -0.397060      -0.003679
      5 C                    -0.560911       0.003254
      6 C                    -0.160696      -0.002588
      7 O                    -0.765489      -0.002215
      8 H                     0.296191       0.000029
      9 H                     0.338984       0.000093
     10 H                     0.282333      -0.000736
     11 H                     0.304699      -0.001111
     12 H                     0.271086       0.003746
     13 O                    -0.466371      -0.000049
     14 H                     0.346028      -0.000042
     15 O                    -0.229436       0.001999
     16 O                    -0.393380      -0.000046
     17 H                     0.322332      -0.000866
     18 H                     0.383030       0.000228
     19 O                     0.066142       0.358284
     20 O                    -0.352699       0.635587
  --------------------------------------------------------
  Sum of atomic charges =    -1.000000

                    Cartesian Multipole Moments
 -----------------------------------------------------------------
    Charge (ESU x 10^10)
                -4.8032
    Dipole Moment (Debye)
         X     -24.5453      Y       5.4149      Z      -8.2572
       Tot      26.4570
    Quadrupole Moments (Debye-Ang)
        XX    -206.9068     XY      16.9329     YY     -78.8822
        XZ     -33.0639     YZ       4.1149     ZZ    -104.9699

             Standard Nuclear Orientation (Angstroms)
    I     Atom           X                Y                Z
 ----------------------------------------------------------------
    1      C       3.0566807000    -0.6440855000    -1.2434678000
    2      O       1.6708130000    -0.4214322000    -1.1323478000
    3      C       3.5731200000    -1.0625794000     0.1400414000
    4      O       3.0903007000    -2.3586694000     0.3636560000
    5      C       3.1525753000    -0.0599283000     1.2170720000
    6      C       3.9357118000    -0.0590888000     2.5309354000
    7      O       5.2147723000     0.2510215000     2.4857449000
    8      H       3.5732325000     0.2611511000    -1.5586033000
    9      H       1.3761075000     0.0256945000    -1.9337089000
   10      H       2.1014229000    -0.2456045000     1.4298959000
   11      H       3.2216433000     0.9521538000     0.8165849000
   12      H       3.3530913000     0.4553904000     3.3051097000
   13      O       3.3462661000    -1.6214513000    -2.2121262000
   14      H       3.0428731000    -2.4733526000    -1.8699843000
   15      O       4.9927252000    -1.2430738000     0.0560527000
   16      O       5.6354988000     0.0346103000     0.0431022000
   17      H       3.3361366000    -2.6313002000     1.2569913000
   18      H       5.6002278000     0.2300318000     1.0581701000
   19      O       3.8400394000    -1.5438193000     3.0689214000
   20      O       2.6931132000    -1.7961176000     3.6279366000
 ----------------------------------------------------------------

 Frequency:        54.07                  79.32                  85.08
 Force Cnst:      0.0177                 0.0267                 0.0483
 Red. Mass:      10.2948                 7.2003                11.3335
 IR Intens:        0.678                  1.649                  3.514
 Frequency:       129.42                 160.78                 210.19
 Force Cnst:      0.0590                 0.1139                 0.1994
 Red. Mass:       5.9764                 7.4784                 7.6596
 IR Intens:        8.012                  7.047                 15.209
 Frequency:       245.37                 265.91                 276.17
 Force Cnst:      0.3139                 0.0939                 0.0574
 Red. Mass:       8.8503                 2.2549                 1.2763
 IR Intens:       51.203                 67.436                151.796
 Frequency:       294.17                 315.16                 325.89
 Force Cnst:      0.1449                 0.1773                 0.1845
 Red. Mass:       2.8423                 3.0301                 2.9479
 IR Intens:       60.399                208.138                 59.460
 Frequency:       363.27                 385.26                 394.27
 Force Cnst:      0.2794                 0.5212                 0.1187
 Red. Mass:       3.5936                 5.9606                 1.2959
 IR Intens:      186.440                 46.825                 67.308
 Frequency:       424.04                 429.24                 507.04
 Force Cnst:      0.6981                 0.2526                 1.0074
 Red. Mass:       6.5896                 2.3270                 6.6510
 IR Intens:       52.149                 29.358                 49.819
 Frequency:       526.93                 530.76                 617.92
 Force Cnst:      0.9761                 0.6989                 1.3989
 Red. Mass:       5.9668                 4.2110                 6.2181
 IR Intens:       41.429                181.617                117.077
 Frequency:       677.43                 783.92                 830.02
 Force Cnst:      1.9591                 1.3064                 2.7438
 Red. Mass:       7.2456                 3.6080                 6.7597
 IR Intens:       64.827                136.285                142.294
 Frequency:       916.03                 950.88                1004.85
 Force Cnst:      1.1278                 1.3909                 1.9039
 Red. Mass:       2.2811                 2.6110                 3.2003
 IR Intens:        6.233                 16.653                 33.264
 Frequency:      1043.41                1074.01                1100.18
 Force Cnst:      3.3659                 0.7874                 1.7102
 Red. Mass:       5.2474                 1.1585                 2.3981
 IR Intens:       40.913                271.687                132.214
 Frequency:      1181.68                1196.33                1222.57
 Force Cnst:      1.5359                 1.0964                 1.4397
 Red. Mass:       1.8669                 1.3002                 1.6348
 IR Intens:      146.572                278.371                106.109
 Frequency:      1255.62                1262.59                1280.86
 Force Cnst:      1.6943                 2.4830                 2.4099
 Red. Mass:       1.8240                 2.6437                 2.4931
 IR Intens:      178.212                353.940                324.670
 Frequency:      1291.34                1313.51                1340.23
 Force Cnst:      7.1026                 1.5236                 2.0226
 Red. Mass:       7.2291                 1.4988                 1.9112
 IR Intens:       15.060                111.701                 14.884
 Frequency:      1354.88                1389.52                1411.99
 Force Cnst:      2.0369                 1.8955                 1.8295
 Red. Mass:       1.8833                 1.6663                 1.5574
 IR Intens:      139.913                 59.958                 98.463
 Frequency:      1435.34                1439.02                1487.03
 Force Cnst:      1.3853                 1.5404                 2.6590
 Red. Mass:       1.1412                 1.2625                 2.0409
 IR Intens:        4.325                101.026                 46.925
 Frequency:      1604.91                2449.11                2999.37
 Force Cnst:      1.6806                 3.8462                 5.7479
 Red. Mass:       1.1075                 1.0883                 1.0844
 IR Intens:      197.840               2383.341                 93.820
 Frequency:      3087.46                3116.90                3136.27
 Force Cnst:      5.9750                 6.2281                 6.3797
 Red. Mass:       1.0639                 1.0881                 1.1008
 IR Intens:        9.728                 29.599                 10.829
 Frequency:      3776.35                3790.29                3825.94
 Force Cnst:      8.9538                 9.0245                 9.1995
 Red. Mass:       1.0656                 1.0662                 1.0667
 IR Intens:      139.186                232.584                134.086

 STANDARD THERMODYNAMIC QUANTITIES AT   298.15 K  AND     1.00 ATM

   This Molecule has  0 Imaginary Frequencies
   Zero point vibrational energy:       89.563 kcal/mol

   Atom    1 Element C  Has Mass   12.00000
   Atom    2 Element O  Has Mass   15.99491
   Atom    3 Element C  Has Mass   12.00000
   Atom    4 Element O  Has Mass   15.99491
   Atom    5 Element C  Has Mass   12.00000
   Atom    6 Element C  Has Mass   12.00000
   Atom    7 Element O  Has Mass   15.99491
   Atom    8 Element H  Has Mass    1.00783
   Atom    9 Element H  Has Mass    1.00783
   Atom   10 Element H  Has Mass    1.00783
   Atom   11 Element H  Has Mass    1.00783
   Atom   12 Element H  Has Mass    1.00783
   Atom   13 Element O  Has Mass   15.99491
   Atom   14 Element H  Has Mass    1.00783
   Atom   15 Element O  Has Mass   15.99491
   Atom   16 Element O  Has Mass   15.99491
   Atom   17 Element H  Has Mass    1.00783
   Atom   18 Element H  Has Mass    1.00783
   Atom   19 Element O  Has Mass   15.99491
   Atom   20 Element O  Has Mass   15.99491
   Molecular Mass:   184.021920 amu
   Principal axes and moments of inertia in amu*Bohr^2:
                             1           2           3
    Eigenvalues --     1274.12874  2579.06965  3092.72232
          X               0.19045     0.87732    -0.44050
          Y               0.04226     0.44097     0.89653
          Z               0.98079    -0.18936     0.04691
   Rotational Symmetry Number is   1
   The Molecule is an Asymmetric Top
   Translational Enthalpy:        0.889 kcal/mol
   Rotational Enthalpy:           0.889 kcal/mol
   Vibrational Enthalpy:         95.730 kcal/mol
   gas constant (RT):             0.592 kcal/mol
   Translational Entropy:        41.536  cal/mol.K
   Rotational Entropy:           30.697  cal/mol.K
   Vibrational Entropy:          37.666  cal/mol.K

   Total Enthalpy:               98.100 kcal/mol
   Total Entropy:               109.899  cal/mol.K
 Total job time:  36862.13s(wall), 519398.45s(cpu)
        *  Thank you very much for using Q-Chem.  Have a nice day.  *
