 Q-Chem 5.4, Q-Chem, Inc., Pleasanton, CA (2021)
 Q-Chem 5.4.1 for Intel X86 EM64T Linux

User input:
--------------------------------------------------------------
$molecule
-1 2
C         3.0512042164   -0.6382400361   -1.2476012182
O         1.6634592173   -0.4196410902   -1.1293328155
C         3.5666796399   -1.0379324050    0.1414134485
O         3.0675418969   -2.3298865428    0.3765461952
C         3.1593431798   -0.0294975085    1.2224648604
C         3.9550177460   -0.0655106958    2.5348205441
O         5.2261482159    0.2382966677    2.5021955958
H         3.5702173024    0.2641681310   -1.5842176236
H         1.3633369320   -0.0528751599   -1.9773885775
H         2.1007001718   -0.2021493395    1.4351695276
H         3.2471345025    0.9888759560    0.8277620694
H         3.3638231776    0.4037300139    3.3409686887
O         3.3455386760   -1.6381147822   -2.1930496246
H         3.0616140062   -2.4779141087   -1.7874301193
O         4.9848176864   -1.2330941904    0.0613027379
O         5.6236291595    0.0567586823    0.0278028953
H         3.3594566023   -2.5884479452    1.2693355388
H         5.6085438543    0.2377629579    1.0469216178
O         3.8266883263   -1.5982088949    3.0141903714
O         2.6614571907   -1.8285293098    3.5681021878
$end

$rem
BASIS = 6-311++G(2df,2p)
GUI = 2
JOB_TYPE = Optimization
METHOD = wB97M-V
SCF_ALGORITHM = DIIS_GDM
MAX_SCF_CYCLES = 400
GEOM_OPT_MAX_CYCLES = 150
SCF_CONVERGENCE = 7
THRESH = 12
Solvent_method = SMD
$end
--------------------------------------------------------------

   22    -759.0327501385      4.50e-08  Convergence criterion met
 Total energy in the final basis set =     -759.0280667772
   20    -759.0263010683      8.83e-08  Convergence criterion met
 Total energy in the final basis set =     -759.0216749612
   20    -759.0311551311      6.95e-08  Convergence criterion met
 Total energy in the final basis set =     -759.0262816259
   20    -759.0288558755      6.74e-08  Convergence criterion met
 Total energy in the final basis set =     -759.0241446324
   21    -759.0306588657      6.29e-08  Convergence criterion met
 Total energy in the final basis set =     -759.0259828775
   21    -759.0310354743      4.43e-08  Convergence criterion met
 Total energy in the final basis set =     -759.0261988006
   20    -759.0336985999      6.69e-08  Convergence criterion met
 Total energy in the final basis set =     -759.0289467946
   20    -759.0337832924      7.66e-08  Convergence criterion met
   21    -759.0337222742      5.82e-08  Convergence criterion met
 Total energy in the final basis set =     -759.0290314828
   21    -759.0338514419      6.88e-08  Convergence criterion met
 Total energy in the final basis set =     -759.0291421161
   20    -759.0337993091      8.38e-08  Convergence criterion met
 Total energy in the final basis set =     -759.0291107810
   21    -759.0338619152      4.93e-08  Convergence criterion met
 Total energy in the final basis set =     -759.0291724669
   20    -759.0338607799      9.69e-08  Convergence criterion met
 Total energy in the final basis set =     -759.0291777928
   20    -759.0338512978      8.80e-08  Convergence criterion met
 Total energy in the final basis set =     -759.0291825669

             Standard Nuclear Orientation (Angstroms)
    I     Atom           X                Y                Z
 ----------------------------------------------------------------
    1      C       3.0566806833    -0.6440855337    -1.2434678049
    2      O       1.6708129699    -0.4214322096    -1.1323477851
    3      C       3.5731200068    -1.0625794032     0.1400413877
    4      O       3.0903007287    -2.3586693562     0.3636560207
    5      C       3.1525753170    -0.0599283471     1.2170719661
    6      C       3.9357118361    -0.0590887787     2.5309354254
    7      O       5.2147722807     0.2510214906     2.4857449180
    8      H       3.5732325122     0.2611510790    -1.5586032512
    9      H       1.3761075380     0.0256945064    -1.9337089414
   10      H       2.1014228530    -0.2456045338     1.4298958683
   11      H       3.2216433136     0.9521538133     0.8165848976
   12      H       3.3530913205     0.4553903630     3.3051096934
   13      O       3.3462660960    -1.6214513435    -2.2121262095
   14      H       3.0428731434    -2.4733526445    -1.8699842682
   15      O       4.9927251718    -1.2430737688     0.0560526550
   16      O       5.6354988356     0.0346102837     0.0431022402
   17      H       3.3361366275    -2.6313001978     1.2569913233
   18      H       5.6002278071     0.2300318346     1.0581701197
   19      O       3.8400394240    -1.5438192672     3.0689214055
   20      O       2.6931132350    -1.7961175870     3.6279366393
 ----------------------------------------------------------------

   20    -759.0338499864      9.43e-08  Convergence criterion met
 Total energy in the final basis set =     -759.0291831169
 Final energy is   -759.029183116905
 **  OPTIMIZATION CONVERGED  **

                    Orbital Energies (a.u.)
 --------------------------------------------------------------

 Alpha MOs
 -- Occupied --
-19.4342 -19.3991 -19.3888 -19.3603 -19.3530 -19.3449 -19.3436 -19.2750
-10.4580 -10.4434 -10.4328 -10.3373  -1.3169  -1.2587  -1.2053  -1.1736
 -1.1342  -1.1142  -1.0105  -0.9573  -0.8913  -0.8248  -0.7441  -0.7134
 -0.6811  -0.6448  -0.6357  -0.6265  -0.6057  -0.5919  -0.5848  -0.5694
 -0.5677  -0.5404  -0.5288  -0.5204  -0.5046  -0.4816  -0.4722  -0.4509
 -0.4417  -0.4278  -0.4106  -0.4072  -0.3948  -0.3839  -0.3716  -0.3515
 -0.3397

 Beta MOs
 -- Occupied --
-19.4226 -19.3888 -19.3814 -19.3603 -19.3530 -19.3449 -19.3436 -19.2751
-10.4580 -10.4434 -10.4331 -10.3372  -1.2895  -1.2585  -1.2053  -1.1735
 -1.1342  -1.1127  -1.0103  -0.9239  -0.8882  -0.8226  -0.7424  -0.7097
 -0.6805  -0.6405  -0.6330  -0.6211  -0.5833  -0.5818  -0.5686  -0.5661
 -0.5535  -0.5384  -0.5258  -0.5138  -0.4808  -0.4768  -0.4717  -0.4504
 -0.4411  -0.4276  -0.4075  -0.4019  -0.3927  -0.3734  -0.3446  -0.3369

          Ground-State Mulliken Net Atomic Charges

     Atom                 Charge (a.u.)    Spin (a.u.)
  --------------------------------------------------------
      1 C                    -0.070702       0.001076
      2 O                    -0.426463      -0.000049
      3 C                     0.212354       0.007090
      4 O                    -0.397056      -0.003680
      5 C                    -0.560842       0.003267
      6 C                    -0.160652      -0.002601
      7 O                    -0.765429      -0.002210
      8 H                     0.296190       0.000029
      9 H                     0.338984       0.000092
     10 H                     0.282280      -0.000737
     11 H                     0.304689      -0.001111
     12 H                     0.271062       0.003739
     13 O                    -0.466371      -0.000049
     14 H                     0.346029      -0.000043
     15 O                    -0.229437       0.001997
     16 O                    -0.393379      -0.000046
     17 H                     0.322337      -0.000855
     18 H                     0.383028       0.000229
     19 O                     0.066114       0.358138
     20 O                    -0.352736       0.635723
  --------------------------------------------------------
  Sum of atomic charges =    -1.000000

                    Cartesian Multipole Moments
 -----------------------------------------------------------------
    Charge (ESU x 10^10)
                -4.8032
    Dipole Moment (Debye)
         X     -24.5456      Y       5.4154      Z      -8.2586
       Tot      26.4579
    Quadrupole Moments (Debye-Ang)
        XX    -206.9074     XY      16.9366     YY     -78.8834
        XZ     -33.0694     YZ       4.1183     ZZ    -104.9804

 Total job time:  4839.96s(wall), 68579.05s(cpu)
        *  Thank you very much for using Q-Chem.  Have a nice day.  *
