 Q-Chem 5.4, Q-Chem, Inc., Pleasanton, CA (2021)
 Q-Chem 5.4.1 for Intel X86 EM64T Linux

User input:
--------------------------------------------------------------
$molecule
0 2
H         0.5494870302    1.1121890970    1.8981981717
C         0.0368225133    1.2510758343    0.9559882674
C        -1.3937059848    1.5742808067    0.9869507899
H        -1.8418405081    1.8157438377    1.9416345888
C        -2.1299889353    1.5826360889   -0.1223353566
H        -3.1838649876    1.8228880810   -0.1068511667
C        -1.5107143611    1.2143396570   -1.4283669096
H        -1.9763529213    1.7262930837   -2.2683406194
C         0.0081139346    1.3928883184   -1.5053921124
H         0.3779365918    0.6823609414   -2.2476299993
C         0.6985687447    1.1628351551   -0.1952745688
H         1.7617485246    0.9637213830   -0.2224195762
O         0.3216569184    2.7243746560   -1.9170485898
H         0.0636089520    2.8222509235   -2.8415479411
O        -1.8180789309   -0.2197648546   -1.6153931630
O        -1.6444777806   -0.5971757089   -2.8488761150
$end

$rem
BASIS = 6-311++G(2df,2p)
GUI = 2
JOB_TYPE = Frequency
METHOD = wB97M-V
SOLVENT_METHOD = SMD
SCF_ALGORITHM = DIIS_GDM
MAX_SCF_CYCLES = 400
SCF_CONVERGENCE = 7
THRESH = 12
$end
--------------------------------------------------------------

   23    -458.3558266563      6.08e-08  Convergence criterion met
 Total energy in the final basis set =     -458.3517460749
   17    -458.3558266478      9.99e-08  Convergence criterion met
 Total energy in the final basis set =     -458.3517458825
   17    -458.3558262232      9.91e-08  Convergence criterion met
 Total energy in the final basis set =     -458.3517458248
   17    -458.3558265620      9.98e-08  Convergence criterion met
 Total energy in the final basis set =     -458.3517460302
   17    -458.3558266329      1.00e-07  Convergence criterion met
 Total energy in the final basis set =     -458.3517460016
   17    -458.3558264591      9.90e-08  Convergence criterion met
 Total energy in the final basis set =     -458.3517455395
   18    -458.3558258292      6.85e-08  Convergence criterion met
 Total energy in the final basis set =     -458.3517455839
   18    -458.3558262886      7.01e-08  Convergence criterion met
 Total energy in the final basis set =     -458.3517453429
   18    -458.3558258139      4.70e-08  Convergence criterion met
 Total energy in the final basis set =     -458.3517450364
   18    -458.3558266182      5.54e-08  Convergence criterion met
 Total energy in the final basis set =     -458.3517460777
   18    -458.3558266387      9.44e-08  Convergence criterion met
 Total energy in the final basis set =     -458.3517460164
   18    -458.3558263542      5.48e-08  Convergence criterion met
 Total energy in the final basis set =     -458.3517458366
   18    -458.3558265918      4.88e-08  Convergence criterion met
 Total energy in the final basis set =     -458.3517459466
   18    -458.3558257240      5.20e-08  Convergence criterion met
 Total energy in the final basis set =     -458.3517451152
   18    -458.3558260172      7.93e-08  Convergence criterion met
 Total energy in the final basis set =     -458.3517454631

                    Orbital Energies (a.u.)
 --------------------------------------------------------------

 Alpha MOs
 -- Occupied --
-19.4638 -19.4162 -19.3453 -10.4103 -10.4064 -10.3559 -10.3509 -10.3489
-10.3476  -1.3425  -1.1655  -1.0272  -0.9575  -0.8782  -0.8564  -0.7527
 -0.7262  -0.6575  -0.6506  -0.6395  -0.6138  -0.6016  -0.5721  -0.5542
 -0.5332  -0.5195  -0.4804  -0.4585  -0.4392  -0.4336  -0.4175  -0.4038
 -0.3782  -0.3344

 Beta MOs
 -- Occupied --
-19.4532 -19.3977 -19.3453 -10.4107 -10.4060 -10.3559 -10.3508 -10.3488
-10.3476  -1.3160  -1.1653  -1.0064  -0.9464  -0.8772  -0.8482  -0.7484
 -0.7248  -0.6507  -0.6400  -0.6267  -0.6055  -0.5734  -0.5596  -0.5436
 -0.5327  -0.4968  -0.4789  -0.4573  -0.4384  -0.4283  -0.4006  -0.3806
 -0.3343

          Ground-State Mulliken Net Atomic Charges

     Atom                 Charge (a.u.)    Spin (a.u.)
  --------------------------------------------------------
      1 H                     0.286791      -0.000071
      2 C                    -0.164870       0.000889
      3 C                    -0.290870      -0.002292
      4 H                     0.279243       0.000181
      5 C                    -0.070122       0.008846
      6 H                     0.312271      -0.000479
      7 C                    -0.507030      -0.005158
      8 H                     0.278644       0.005741
      9 C                    -0.296186       0.006275
     10 H                     0.239519      -0.001740
     11 C                    -0.147212       0.002676
     12 H                     0.296267       0.000189
     13 O                    -0.398494       0.002068
     14 H                     0.332698       0.000014
     15 O                     0.084260       0.321038
     16 O                    -0.234909       0.661820
  --------------------------------------------------------
  Sum of atomic charges =    -0.000000

                    Cartesian Multipole Moments
 -----------------------------------------------------------------
    Charge (ESU x 10^10)
                 0.0000
    Dipole Moment (Debye)
         X      -0.1629      Y       1.7564      Z       0.9083
       Tot       1.9841
    Quadrupole Moments (Debye-Ang)
        XX     -50.1709     XY      -9.0130     YY     -59.2477
        XZ      -2.2931     YZ      -6.2916     ZZ     -47.1953

             Standard Nuclear Orientation (Angstroms)
    I     Atom           X                Y                Z
 ----------------------------------------------------------------
    1      H       0.5494870302     1.1121890970     1.8981981717
    2      C       0.0368225133     1.2510758343     0.9559882674
    3      C      -1.3937059848     1.5742808067     0.9869507899
    4      H      -1.8418405081     1.8157438377     1.9416345888
    5      C      -2.1299889353     1.5826360889    -0.1223353566
    6      H      -3.1838649876     1.8228880810    -0.1068511667
    7      C      -1.5107143611     1.2143396570    -1.4283669096
    8      H      -1.9763529213     1.7262930837    -2.2683406194
    9      C       0.0081139346     1.3928883184    -1.5053921124
   10      H       0.3779365918     0.6823609414    -2.2476299993
   11      C       0.6985687447     1.1628351551    -0.1952745688
   12      H       1.7617485246     0.9637213830    -0.2224195762
   13      O       0.3216569184     2.7243746560    -1.9170485898
   14      H       0.0636089520     2.8222509235    -2.8415479411
   15      O      -1.8180789309    -0.2197648546    -1.6153931630
   16      O      -1.6444777806    -0.5971757089    -2.8488761150
 ----------------------------------------------------------------

 Frequency:        70.62                 114.09                 154.65
 Force Cnst:      0.0147                 0.0685                 0.0727
 Red. Mass:       5.0182                 8.9332                 5.1581
 IR Intens:        6.966                  3.287                  0.557
 Frequency:       251.13                 297.34                 318.92
 Force Cnst:      0.2157                 0.1653                 0.0704
 Red. Mass:       5.8038                 3.1726                 1.1748
 IR Intens:        9.323                  8.420                227.890
 Frequency:       401.77                 435.48                 496.97
 Force Cnst:      0.4817                 0.2935                 0.8433
 Red. Mass:       5.0650                 2.6269                 5.7953
 IR Intens:       17.537                 30.362                  1.991
 Frequency:       565.04                 615.86                 640.63
 Force Cnst:      0.9865                 1.1247                 0.9801
 Red. Mass:       5.2444                 5.0331                 4.0534
 IR Intens:        0.898                 24.040                 32.005
 Frequency:       736.60                 825.03                 856.70
 Force Cnst:      0.5009                 0.5993                 1.6907
 Red. Mass:       1.5670                 1.4944                 3.9099
 IR Intens:       68.797                  9.670                  8.907
 Frequency:       940.59                 969.58                 980.38
 Force Cnst:      2.6036                 1.4157                 2.4601
 Red. Mass:       4.9949                 2.5559                 4.3443
 IR Intens:      103.663                  6.732                 27.698
 Frequency:       999.11                1027.73                1035.75
 Force Cnst:      1.3714                 0.8229                 0.8502
 Red. Mass:       2.3318                 1.3224                 1.3451
 IR Intens:       11.865                  0.729                  1.309
 Frequency:      1072.94                1122.95                1164.90
 Force Cnst:      4.2355                 1.1088                 0.8192
 Red. Mass:       6.2445                 1.4924                 1.0246
 IR Intens:      173.209                 21.679                  0.102
 Frequency:      1194.07                1226.94                1267.08
 Force Cnst:      0.9108                 0.9675                13.2882
 Red. Mass:       1.0842                 1.0908                14.0479
 IR Intens:        2.440                102.566                 16.867
 Frequency:      1308.49                1345.67                1368.48
 Force Cnst:      1.1514                 2.1934                 1.4620
 Red. Mass:       1.1414                 2.0559                 1.3250
 IR Intens:       18.341                 27.294                  2.597
 Frequency:      1389.38                1438.06                1453.37
 Force Cnst:      1.4465                 2.1363                 2.2813
 Red. Mass:       1.2718                 1.7533                 1.8330
 IR Intens:       16.301                 12.880                 30.350
 Frequency:      1688.63                1742.19                3066.94
 Force Cnst:     13.4149                10.7875                 6.0066
 Red. Mass:       7.9848                 6.0323                 1.0839
 IR Intens:        3.760                  3.120                 22.806
 Frequency:      3116.83                3189.77                3196.57
 Force Cnst:      6.2190                 6.5117                 6.5488
 Red. Mass:       1.0865                 1.0862                 1.0878
 IR Intens:        8.720                  1.179                  8.282
 Frequency:      3210.13                3217.04                3808.66
 Force Cnst:      6.6666                 6.7069                 9.1139
 Red. Mass:       1.0980                 1.0999                 1.0664
 IR Intens:       22.630                 10.786                114.268

 STANDARD THERMODYNAMIC QUANTITIES AT   298.15 K  AND     1.00 ATM

   This Molecule has  0 Imaginary Frequencies
   Zero point vibrational energy:       77.659 kcal/mol

   Atom    1 Element H  Has Mass    1.00783
   Atom    2 Element C  Has Mass   12.00000
   Atom    3 Element C  Has Mass   12.00000
   Atom    4 Element H  Has Mass    1.00783
   Atom    5 Element C  Has Mass   12.00000
   Atom    6 Element H  Has Mass    1.00783
   Atom    7 Element C  Has Mass   12.00000
   Atom    8 Element H  Has Mass    1.00783
   Atom    9 Element C  Has Mass   12.00000
   Atom   10 Element H  Has Mass    1.00783
   Atom   11 Element C  Has Mass   12.00000
   Atom   12 Element H  Has Mass    1.00783
   Atom   13 Element O  Has Mass   15.99491
   Atom   14 Element H  Has Mass    1.00783
   Atom   15 Element O  Has Mass   15.99491
   Atom   16 Element O  Has Mass   15.99491
   Molecular Mass:   127.039540 amu
   Principal axes and moments of inertia in amu*Bohr^2:
                             1           2           3
    Eigenvalues --      783.66886  1173.54483  1499.36328
          X               0.40487     0.69854    -0.59001
          Y               0.50667     0.36576     0.78071
          Z               0.76116    -0.61503    -0.20584
   Rotational Symmetry Number is   1
   The Molecule is an Asymmetric Top
   Translational Enthalpy:        0.889 kcal/mol
   Rotational Enthalpy:           0.889 kcal/mol
   Vibrational Enthalpy:         81.018 kcal/mol
   gas constant (RT):             0.592 kcal/mol
   Translational Entropy:        40.431  cal/mol.K
   Rotational Entropy:           28.713  cal/mol.K
   Vibrational Entropy:          19.819  cal/mol.K

   Total Enthalpy:               83.388 kcal/mol
   Total Entropy:                88.962  cal/mol.K
 Total job time:  13531.10s(wall), 195160.14s(cpu)
        *  Thank you very much for using Q-Chem.  Have a nice day.  *
