 Q-Chem 5.4, Q-Chem, Inc., Pleasanton, CA (2021)
 Q-Chem 5.4.1 for Intel X86 EM64T Linux

User input:
--------------------------------------------------------------
$molecule
0 2
H         0.5462870693    1.0831206813    1.8963710107
C         0.0345855481    1.2353565987    0.9502017503
C        -1.3939993983    1.5834543187    0.9827367931
H        -1.8387415965    1.8309732158    1.9428832558
C        -2.1323880624    1.6091572074   -0.1326841702
H        -3.1874841142    1.8645278014   -0.1180150935
C        -1.5149463690    1.2140999411   -1.4372907470
H        -1.9887624310    1.6980758391   -2.2948894275
C         0.0057687766    1.4026339582   -1.5182883113
H         0.3746401884    0.7096912911   -2.2847615436
C         0.6958544031    1.1389934316   -0.2079839607
H         1.7609072115    0.9257395072   -0.2372474016
O         0.3085472328    2.7500854445   -1.8826599611
H         0.0492225791    2.8579636376   -2.8136290480
O        -1.8079241971   -0.2303567128   -1.5782496733
O        -1.5926480404   -0.6425788607   -2.8031977722
$end

$rem
BASIS = 6-311++G(2df,2p)
GUI = 2
JOB_TYPE = Optimization
METHOD = wB97M-V
SCF_ALGORITHM = DIIS_GDM
MAX_SCF_CYCLES = 400
GEOM_OPT_MAX_CYCLES = 150
SCF_CONVERGENCE = 7
THRESH = 12
Solvent_method = SMD
$end
--------------------------------------------------------------

   23    -458.3553793556      8.44e-08  Convergence criterion met
 Total energy in the final basis set =     -458.3512627787
   21    -458.3557888262      4.78e-08  Convergence criterion met
 Total energy in the final basis set =     -458.3517081992
   21    -458.3558127578      3.54e-08  Convergence criterion met
 Total energy in the final basis set =     -458.3517333213
   18    -458.3558238753      7.09e-08  Convergence criterion met
 Total energy in the final basis set =     -458.3517424028
   18    -458.3558268194      9.01e-08  Convergence criterion met
 Total energy in the final basis set =     -458.3517454358

             Standard Nuclear Orientation (Angstroms)
    I     Atom           X                Y                Z
 ----------------------------------------------------------------
    1      H       0.5494870302     1.1121890970     1.8981981717
    2      C       0.0368225133     1.2510758343     0.9559882674
    3      C      -1.3937059848     1.5742808067     0.9869507899
    4      H      -1.8418405081     1.8157438377     1.9416345888
    5      C      -2.1299889353     1.5826360889    -0.1223353566
    6      H      -3.1838649876     1.8228880810    -0.1068511667
    7      C      -1.5107143611     1.2143396570    -1.4283669096
    8      H      -1.9763529213     1.7262930837    -2.2683406194
    9      C       0.0081139346     1.3928883184    -1.5053921124
   10      H       0.3779365918     0.6823609414    -2.2476299993
   11      C       0.6985687447     1.1628351551    -0.1952745688
   12      H       1.7617485246     0.9637213830    -0.2224195762
   13      O       0.3216569184     2.7243746560    -1.9170485898
   14      H       0.0636089520     2.8222509235    -2.8415479411
   15      O      -1.8180789309    -0.2197648546    -1.6153931630
   16      O      -1.6444777806    -0.5971757089    -2.8488761150
 ----------------------------------------------------------------

   18    -458.3558266565      5.81e-08  Convergence criterion met
 Total energy in the final basis set =     -458.3517460751
 Final energy is   -458.351746075146
 **  OPTIMIZATION CONVERGED  **

                    Orbital Energies (a.u.)
 --------------------------------------------------------------

 Alpha MOs
 -- Occupied --
-19.4638 -19.4160 -19.3453 -10.4102 -10.4064 -10.3559 -10.3509 -10.3489
-10.3476  -1.3430  -1.1655  -1.0272  -0.9574  -0.8782  -0.8563  -0.7527
 -0.7262  -0.6576  -0.6507  -0.6396  -0.6138  -0.6018  -0.5722  -0.5543
 -0.5332  -0.5195  -0.4804  -0.4585  -0.4392  -0.4335  -0.4174  -0.4036
 -0.3781  -0.3344

 Beta MOs
 -- Occupied --
-19.4532 -19.3976 -19.3453 -10.4106 -10.4060 -10.3559 -10.3508 -10.3488
-10.3476  -1.3166  -1.1653  -1.0064  -0.9464  -0.8772  -0.8481  -0.7484
 -0.7248  -0.6508  -0.6400  -0.6268  -0.6055  -0.5734  -0.5597  -0.5437
 -0.5327  -0.4969  -0.4789  -0.4573  -0.4384  -0.4283  -0.4006  -0.3805
 -0.3343

          Ground-State Mulliken Net Atomic Charges

     Atom                 Charge (a.u.)    Spin (a.u.)
  --------------------------------------------------------
      1 H                     0.286790      -0.000070
      2 C                    -0.164833       0.000891
      3 C                    -0.290898      -0.002294
      4 H                     0.279242       0.000181
      5 C                    -0.070162       0.008850
      6 H                     0.312268      -0.000476
      7 C                    -0.507099      -0.005170
      8 H                     0.278625       0.005752
      9 C                    -0.296033       0.006267
     10 H                     0.239531      -0.001739
     11 C                    -0.147367       0.002675
     12 H                     0.296263       0.000189
     13 O                    -0.398500       0.002066
     14 H                     0.332698       0.000014
     15 O                     0.084604       0.321437
     16 O                    -0.235129       0.661427
  --------------------------------------------------------
  Sum of atomic charges =     0.000000

                    Cartesian Multipole Moments
 -----------------------------------------------------------------
    Charge (ESU x 10^10)
                 0.0000
    Dipole Moment (Debye)
         X      -0.1635      Y       1.7560      Z       0.9083
       Tot       1.9837
    Quadrupole Moments (Debye-Ang)
        XX     -50.1684     XY      -9.0123     YY     -59.2481
        XZ      -2.2917     YZ      -6.2928     ZZ     -47.1980

 Total job time:  1401.92s(wall), 10917.20s(cpu)
        *  Thank you very much for using Q-Chem.  Have a nice day.  *
