 Q-Chem 5.4, Q-Chem, Inc., Pleasanton, CA (2021)
 Q-Chem 5.4.1 for Intel X86 EM64T Linux

User input:
--------------------------------------------------------------
$molecule
0 2
C        -0.5326998320    0.0025343068    1.0230088974
C        -0.9680983888   -1.1061386779    1.7802259216
C        -1.8563513933   -2.0070854607    1.2371255274
C        -2.3613365522   -1.7976328415   -0.0475638954
C        -1.9848859224   -0.6759702028   -0.7817255910
C        -1.0941960923    0.2408942012   -0.2544839734
C        -0.6553643282    1.4407344335   -1.0471337767
H         0.0088051725    0.7990370438    1.5126621360
H        -0.5776116754   -1.2486966183    2.7783292608
H        -2.1743327329   -2.8689676202    1.8069610373
H        -3.0620138259   -2.5040952834   -0.4709461863
H        -2.4004170344   -0.5102610904   -1.7676878666
H        -1.3991398974    1.6865071802   -1.8048774205
O         0.6226437233    1.2217845646   -1.6668666842
H        -0.5244143939    2.3000984831   -0.3928305391
H         0.5012626424    0.5717335151   -2.3685592532
O         1.2768960978   -0.8001235469    0.3787212566
H         1.3346013948   -0.1633912668   -0.3545236837
$end

$rem
BASIS = 6-311++G(2df,2p)
GUI = 2
JOB_TYPE = Frequency
METHOD = wB97M-V
SOLVENT_METHOD = SMD
SCF_ALGORITHM = DIIS_GDM
MAX_SCF_CYCLES = 400
SCF_CONVERGENCE = 7
THRESH = 12
UNRESTRICTED = 1
SYMMETRY_IGNORE = 1
$end
--------------------------------------------------------------

   23    -422.5080721304      9.08e-08  Convergence criterion met
 Total energy in the final basis set =     -422.5027630009
   21    -422.5080717014      7.22e-08  Convergence criterion met
 Total energy in the final basis set =     -422.5027626772
   21    -422.5080717460      7.40e-08  Convergence criterion met
 Total energy in the final basis set =     -422.5027625094
   21    -422.5080715543      7.21e-08  Convergence criterion met
 Total energy in the final basis set =     -422.5027619710
   21    -422.5080706427      7.33e-08  Convergence criterion met
 Total energy in the final basis set =     -422.5027619646
   21    -422.5080712279      7.34e-08  Convergence criterion met
 Total energy in the final basis set =     -422.5027619692
   21    -422.5080709686      7.16e-08  Convergence criterion met
 Total energy in the final basis set =     -422.5027619652
   21    -422.5080717879      7.37e-08  Convergence criterion met
 Total energy in the final basis set =     -422.5027623917
   21    -422.5080713831      7.48e-08  Convergence criterion met
 Total energy in the final basis set =     -422.5027625743
   21    -422.5080730159      7.09e-08  Convergence criterion met
 Total energy in the final basis set =     -422.5027631534
   21    -422.5080711564      7.50e-08  Convergence criterion met
 Total energy in the final basis set =     -422.5027627593
   21    -422.5080719588      7.20e-08  Convergence criterion met
 Total energy in the final basis set =     -422.5027627488
   21    -422.5080715443      7.22e-08  Convergence criterion met
 Total energy in the final basis set =     -422.5027624950
   21    -422.5080712906      7.35e-08  Convergence criterion met
 Total energy in the final basis set =     -422.5027623771
   21    -422.5080719714      7.19e-08  Convergence criterion met
 Total energy in the final basis set =     -422.5027626262

                    Orbital Energies (a.u.)
 --------------------------------------------------------------

 Alpha MOs
 -- Occupied --
-19.3445 -19.3372 -10.3900 -10.3740 -10.3649 -10.3589 -10.3569 -10.3488
-10.3483  -1.1604  -1.0919  -0.9958  -0.9007  -0.8800  -0.8022  -0.7350
 -0.7112  -0.6417  -0.6160  -0.5821  -0.5718  -0.5503  -0.5484  -0.5315
 -0.5268  -0.5068  -0.4734  -0.4524  -0.4446  -0.4390  -0.4124  -0.3960
 -0.3570  -0.3212

 Beta MOs
 -- Occupied --
-19.3442 -19.3198 -10.3902 -10.3740 -10.3619 -10.3559 -10.3541 -10.3503
-10.3497  -1.1596  -1.0521  -0.9908  -0.8976  -0.8753  -0.8019  -0.7317
 -0.7084  -0.6402  -0.6148  -0.5788  -0.5690  -0.5437  -0.5383  -0.5277
 -0.5212  -0.4847  -0.4688  -0.4503  -0.4376  -0.3949  -0.3924  -0.3667
 -0.3497

          Ground-State Mulliken Net Atomic Charges

     Atom                 Charge (a.u.)    Spin (a.u.)
  --------------------------------------------------------
      1 C                     0.028926      -0.051484
      2 C                    -0.306842       0.191279
      3 C                    -0.453883      -0.090029
      4 C                    -0.199407       0.210093
      5 C                    -0.494018      -0.082655
      6 C                     0.298654       0.195519
      7 C                    -0.514446      -0.003515
      8 H                     0.370617       0.011705
      9 H                     0.293749      -0.004087
     10 H                     0.280832       0.002263
     11 H                     0.295697      -0.003742
     12 H                     0.272106       0.002413
     13 H                     0.201622       0.000633
     14 O                    -0.398064       0.006754
     15 H                     0.216712       0.002419
     16 H                     0.328713      -0.000259
     17 O                    -0.535368       0.617257
     18 H                     0.314399      -0.004563
  --------------------------------------------------------
  Sum of atomic charges =    -0.000000

                    Cartesian Multipole Moments
 -----------------------------------------------------------------
    Charge (ESU x 10^10)
                -0.0000
    Dipole Moment (Debye)
         X      -5.2727      Y       0.8322      Z      -1.6663
       Tot       5.5920
    Quadrupole Moments (Debye-Ang)
        XX     -55.0733     XY       5.0003     YY     -53.2507
        XZ       1.6706     YZ       0.8507     ZZ     -44.6387

             Standard Nuclear Orientation (Angstroms)
    I     Atom           X                Y                Z
 ----------------------------------------------------------------
    1      C      -0.5326998320     0.0025343068     1.0230088974
    2      C      -0.9680983888    -1.1061386779     1.7802259216
    3      C      -1.8563513933    -2.0070854607     1.2371255274
    4      C      -2.3613365522    -1.7976328415    -0.0475638954
    5      C      -1.9848859224    -0.6759702028    -0.7817255910
    6      C      -1.0941960923     0.2408942012    -0.2544839734
    7      C      -0.6553643282     1.4407344335    -1.0471337767
    8      H       0.0088051725     0.7990370438     1.5126621360
    9      H      -0.5776116754    -1.2486966183     2.7783292608
   10      H      -2.1743327329    -2.8689676202     1.8069610373
   11      H      -3.0620138259    -2.5040952834    -0.4709461863
   12      H      -2.4004170344    -0.5102610904    -1.7676878666
   13      H      -1.3991398974     1.6865071802    -1.8048774205
   14      O       0.6226437233     1.2217845646    -1.6668666842
   15      H      -0.5244143939     2.3000984831    -0.3928305391
   16      H       0.5012626424     0.5717335151    -2.3685592532
   17      O       1.2768960978    -0.8001235469     0.3787212566
   18      H       1.3346013948    -0.1633912668    -0.3545236837
 ----------------------------------------------------------------

 Frequency:      -306.07                  66.64                 112.50
 Force Cnst:      0.6706                 0.0097                 0.0426
 Red. Mass:      12.1496                 3.7146                 5.7072
 IR Intens:      157.606                  4.952                  6.835
 Frequency:       161.44                 169.54                 310.04
 Force Cnst:      0.0766                 0.1151                 0.0804
 Red. Mass:       4.9900                 6.7941                 1.4197
 IR Intens:        2.498                  6.423                102.517
 Frequency:       312.32                 357.36                 389.99
 Force Cnst:      0.2569                 0.1153                 0.2679
 Red. Mass:       4.4709                 1.5324                 2.9902
 IR Intens:       11.778                130.958                 12.829
 Frequency:       472.57                 491.48                 591.41
 Force Cnst:      0.1418                 0.5641                 0.7435
 Red. Mass:       1.0774                 3.9637                 3.6079
 IR Intens:      185.475                  0.321                 56.213
 Frequency:       617.43                 727.15                 763.06
 Force Cnst:      1.4127                 1.0323                 0.4836
 Red. Mass:       6.2898                 3.3136                 1.4098
 IR Intens:       16.088                 14.502                144.788
 Frequency:       825.28                 844.11                 892.00
 Force Cnst:      1.3729                 0.4472                 0.6015
 Red. Mass:       3.4214                 1.0653                 1.2831
 IR Intens:       19.658                 46.000                 29.408
 Frequency:       946.20                 957.97                1002.09
 Force Cnst:      0.7989                 0.7587                 1.1016
 Red. Mass:       1.5146                 1.4032                 1.8620
 IR Intens:       35.950                228.099                 54.398
 Frequency:      1018.23                1024.58                1032.49
 Force Cnst:      1.3332                 2.9955                 0.9043
 Red. Mass:       2.1825                 4.8432                 1.4397
 IR Intens:        6.933                 76.545                  2.800
 Frequency:      1051.29                1089.42                1159.77
 Force Cnst:      1.4020                 1.0689                 0.9151
 Red. Mass:       2.1530                 1.5286                 1.1547
 IR Intens:        6.717                 15.954                  7.943
 Frequency:      1177.93                1184.82                1231.52
 Force Cnst:      0.9397                 0.9320                 2.3565
 Red. Mass:       1.1495                 1.1269                 2.6372
 IR Intens:       16.448                 82.418                 47.785
 Frequency:      1323.43                1346.35                1376.61
 Force Cnst:      4.4002                 1.4445                 1.3635
 Red. Mass:       4.2640                 1.3525                 1.2212
 IR Intens:       18.596                  0.540                 14.258
 Frequency:      1404.39                1465.65                1485.63
 Force Cnst:      1.4499                 2.6232                 1.4245
 Red. Mass:       1.2477                 2.0726                 1.0954
 IR Intens:       51.303                 34.096                  2.483
 Frequency:      1529.48                1605.71                1635.24
 Force Cnst:      3.3978                 7.9656                 8.8048
 Red. Mass:       2.4652                 5.2437                 5.5886
 IR Intens:       22.896                 45.531                185.895
 Frequency:      3075.91                3133.53                3188.64
 Force Cnst:      5.9117                 6.4017                 6.5241
 Red. Mass:       1.0605                 1.1066                 1.0891
 IR Intens:       61.669                 27.659                  6.571
 Frequency:      3198.25                3205.91                3212.19
 Force Cnst:      6.5567                 6.6067                 6.6481
 Red. Mass:       1.0879                 1.0910                 1.0936
 IR Intens:        1.411                 16.744                 16.394
 Frequency:      3219.67                3671.39                3818.95
 Force Cnst:      6.7082                 8.4834                 9.1647
 Red. Mass:       1.0983                 1.0682                 1.0665
 IR Intens:       26.328                516.769                108.710

 STANDARD THERMODYNAMIC QUANTITIES AT   298.15 K  AND     1.00 ATM

   This Molecule has  1 Imaginary Frequencies
   Zero point vibrational energy:       91.318 kcal/mol

   Atom    1 Element C  Has Mass   12.00000
   Atom    2 Element C  Has Mass   12.00000
   Atom    3 Element C  Has Mass   12.00000
   Atom    4 Element C  Has Mass   12.00000
   Atom    5 Element C  Has Mass   12.00000
   Atom    6 Element C  Has Mass   12.00000
   Atom    7 Element C  Has Mass   12.00000
   Atom    8 Element H  Has Mass    1.00783
   Atom    9 Element H  Has Mass    1.00783
   Atom   10 Element H  Has Mass    1.00783
   Atom   11 Element H  Has Mass    1.00783
   Atom   12 Element H  Has Mass    1.00783
   Atom   13 Element H  Has Mass    1.00783
   Atom   14 Element O  Has Mass   15.99491
   Atom   15 Element H  Has Mass    1.00783
   Atom   16 Element H  Has Mass    1.00783
   Atom   17 Element O  Has Mass   15.99491
   Atom   18 Element H  Has Mass    1.00783
   Molecular Mass:   125.060290 amu
   Principal axes and moments of inertia in amu*Bohr^2:
                             1           2           3
    Eigenvalues --      675.52777  1344.27674  1703.36268
          X               0.49709     0.80033    -0.33522
          Y               0.67926    -0.11854     0.72426
          Z              -0.53991     0.58772     0.60256
   Rotational Symmetry Number is   1
   The Molecule is an Asymmetric Top
   Translational Enthalpy:        0.889 kcal/mol
   Rotational Enthalpy:           0.889 kcal/mol
   Vibrational Enthalpy:         94.967 kcal/mol
   gas constant (RT):             0.592 kcal/mol
   Translational Entropy:        40.384  cal/mol.K
   Rotational Entropy:           28.827  cal/mol.K
   Vibrational Entropy:          21.635  cal/mol.K

   Total Enthalpy:               97.337 kcal/mol
   Total Entropy:                90.847  cal/mol.K
 Total job time:  38865.05s(wall), 301760.14s(cpu)
        *  Thank you very much for using Q-Chem.  Have a nice day.  *
