 Q-Chem 5.4, Q-Chem, Inc., Pleasanton, CA (2021)
 Q-Chem 5.4.1 for Intel X86 EM64T Linux

User input:
--------------------------------------------------------------
$molecule
0 2
C   -0.7178915    0.0714637    1.1392109
C   -1.1106707   -1.0574476    1.8494712
C   -1.9198338   -2.0094095    1.2456280
C   -2.3390523   -1.8302777   -0.0679615
C   -1.9456741   -0.7034066   -0.7755243
C   -1.1302371    0.2544551   -0.1791952
C   -0.6376754    1.4328250   -0.9735377
H   -0.0983056    0.8227900    1.6127494
H   -0.7873549   -1.1897628    2.8733270
H   -2.2285931   -2.8869552    1.7974306
H   -2.9749430   -2.5680574   -0.5384256
H   -2.2730743   -0.5620399   -1.7986539
H   -1.3969895    1.7743126   -1.6765894
O    0.5680171    1.1062964   -1.6933091
H   -0.3744631    2.2563665   -0.3141144
H    0.3294405    0.5116836   -2.4140953
O    1.7394402   -0.7417567    0.0872431
H    1.4562393   -0.0906463   -0.5977224
****
C   -0.2376835   -0.1868767    0.8651686
C   -0.7859464   -1.3313663    1.6487258
C   -1.8715904   -2.0334138    1.2448650
C   -2.5546564   -1.6972804    0.0520717
C   -2.1208376   -0.5979103   -0.7185345
C   -1.0463007    0.1517500   -0.3538826
C   -0.6494284    1.3756748   -1.1179177
H   -0.1902445    0.7039134    1.5074795
H   -0.2573304   -1.5961632    2.5554423
H   -2.2252945   -2.8664960    1.8380370
H   -3.4101127   -2.2755807   -0.2649304
H   -2.6706277   -0.3299508   -1.6131805
H   -1.3360621    1.5433431   -1.9482411
O    0.7069303    1.3180693   -1.5985081
H   -0.6803695    2.2480689   -0.4632103
H    0.7501081    0.6271634   -2.2696827
O    1.1301526   -0.5295022    0.5118450
H    1.4151074    0.1298612   -0.1383608
$end

$rem
BASIS = 6-311++G(2df,2p)
GUI = 2
JOB_TYPE = FSM
FSM_MODE = 2
METHOD = wB97M-v
MAX_SCF_CYCLES = 120
FSM_NGRAD = 6
FSM_NNODE = 20
SCF_CONVERGENCE = 7
THRESH = 12
SCF_ALGORITHM = DIIS_GDM
UNRESTRICTED = 1
solvent_method = SMD
$end

--------------------------------------------------------------

   29    -422.5109757445      9.74e-08  Convergence criterion met
 Total energy in the final basis set =     -422.5056649414
   19    -422.5356302933      4.54e-08  Convergence criterion met
 Total energy in the final basis set =     -422.5302486142
   29    -422.5108284664      7.77e-08  Convergence criterion met
 Total energy in the final basis set =     -422.5055215570
   31    -422.5084516930      8.80e-08  Convergence criterion met
 Total energy in the final basis set =     -422.5031159225
   30    -422.5097400028      2.97e-08  Convergence criterion met
 Total energy in the final basis set =     -422.5044232497
   19    -422.5340189835      7.26e-08  Convergence criterion met
 Total energy in the final basis set =     -422.5286503479
   19    -422.5352410468      4.25e-08  Convergence criterion met
 Total energy in the final basis set =     -422.5298460321
   28    -422.5094099067      6.03e-08  Convergence criterion met
 Total job time:  24605.15s(wall), 191324.91s(cpu)
        *  Thank you very much for using Q-Chem.  Have a nice day.  *
 Q-Chem 5.4, Q-Chem, Inc., Pleasanton, CA (2021)
 Q-Chem 5.4.1 for Intel X86 EM64T Linux

User input:
--------------------------------------------------------------

$rem
JOBTYPE = ts
SCF_GUESS = read
GEOM_OPT_HESSIAN = read
MAX_SCF_CYCLES = 350
GEOM_OPT_DMAX = 60
GEOM_OPT_MAX_CYCLES = 250
METHOD = wB97M-v
BASIS = 6-311++G(2df,2p)
SCF_CONVERGENCE = 7
THRESH = 12
SCF_ALGORITHM = DIIS_GDM
UNRESTRICTED = 1
solvent_method = SMD
$end

$molecule
read
$end

--------------------------------------------------------------

   21    -422.5080709294      8.61e-08  Convergence criterion met
 Total energy in the final basis set =     -422.5027491496
   21    -422.5080680194      7.77e-08  Convergence criterion met
 Total energy in the final basis set =     -422.5027540603
   21    -422.5080668460      7.22e-08  Convergence criterion met
 Total energy in the final basis set =     -422.5027567203
   21    -422.5080650021      7.65e-08  Convergence criterion met
 Total energy in the final basis set =     -422.5027585476
   21    -422.5080657672      6.89e-08  Convergence criterion met
 Total energy in the final basis set =     -422.5027599114
   21    -422.5080697469      7.12e-08  Convergence criterion met
 Total energy in the final basis set =     -422.5027620824

             Standard Nuclear Orientation (Angstroms)
    I     Atom           X                Y                Z
 ----------------------------------------------------------------
    1      C      -0.5326998320     0.0025343068     1.0230088974
    2      C      -0.9680983888    -1.1061386779     1.7802259216
    3      C      -1.8563513933    -2.0070854607     1.2371255274
    4      C      -2.3613365522    -1.7976328415    -0.0475638954
    5      C      -1.9848859224    -0.6759702028    -0.7817255910
    6      C      -1.0941960923     0.2408942012    -0.2544839734
    7      C      -0.6553643282     1.4407344335    -1.0471337767
    8      H       0.0088051725     0.7990370438     1.5126621360
    9      H      -0.5776116754    -1.2486966183     2.7783292608
   10      H      -2.1743327329    -2.8689676202     1.8069610373
   11      H      -3.0620138259    -2.5040952834    -0.4709461863
   12      H      -2.4004170344    -0.5102610904    -1.7676878666
   13      H      -1.3991398974     1.6865071802    -1.8048774205
   14      O       0.6226437233     1.2217845646    -1.6668666842
   15      H      -0.5244143939     2.3000984831    -0.3928305391
   16      H       0.5012626424     0.5717335151    -2.3685592532
   17      O       1.2768960978    -0.8001235469     0.3787212566
   18      H       1.3346013948    -0.1633912668    -0.3545236837
 ----------------------------------------------------------------

   21    -422.5080721307      7.32e-08  Convergence criterion met
 Total energy in the final basis set =     -422.5027630011
 Final energy is   -422.502763001111
 **  OPTIMIZATION CONVERGED  **

                    Orbital Energies (a.u.)
 --------------------------------------------------------------

 Alpha MOs
 -- Occupied --
-19.3445 -19.3371 -10.3900 -10.3740 -10.3649 -10.3589 -10.3569 -10.3488
-10.3483  -1.1604  -1.0921  -0.9958  -0.9007  -0.8801  -0.8022  -0.7351
 -0.7112  -0.6417  -0.6160  -0.5821  -0.5718  -0.5504  -0.5484  -0.5315
 -0.5268  -0.5068  -0.4734  -0.4524  -0.4446  -0.4390  -0.4124  -0.3960
 -0.3570  -0.3212

 Beta MOs
 -- Occupied --
-19.3442 -19.3197 -10.3902 -10.3740 -10.3619 -10.3559 -10.3541 -10.3503
-10.3497  -1.1596  -1.0523  -0.9908  -0.8976  -0.8753  -0.8019  -0.7317
 -0.7084  -0.6402  -0.6148  -0.5788  -0.5690  -0.5437  -0.5383  -0.5277
 -0.5212  -0.4847  -0.4688  -0.4503  -0.4376  -0.3949  -0.3924  -0.3667
 -0.3497

          Ground-State Mulliken Net Atomic Charges

     Atom                 Charge (a.u.)    Spin (a.u.)
  --------------------------------------------------------
      1 C                     0.028979      -0.051417
      2 C                    -0.306817       0.191321
      3 C                    -0.453830      -0.090044
      4 C                    -0.199421       0.210140
      5 C                    -0.494221      -0.082657
      6 C                     0.298766       0.195531
      7 C                    -0.514379      -0.003510
      8 H                     0.370652       0.011704
      9 H                     0.293751      -0.004088
     10 H                     0.280836       0.002263
     11 H                     0.295697      -0.003742
     12 H                     0.272107       0.002413
     13 H                     0.201608       0.000633
     14 O                    -0.398146       0.006760
     15 H                     0.216720       0.002418
     16 H                     0.328724      -0.000260
     17 O                    -0.535371       0.617077
     18 H                     0.314343      -0.004542
  --------------------------------------------------------
  Sum of atomic charges =    -0.000000

                    Cartesian Multipole Moments
 -----------------------------------------------------------------
    Charge (ESU x 10^10)
                 0.0000
    Dipole Moment (Debye)
         X      -5.2743      Y       0.8319      Z      -1.6641
       Tot       5.5928
    Quadrupole Moments (Debye-Ang)
        XX     -55.0711     XY       5.0027     YY     -53.2492
        XZ       1.6723     YZ       0.8513     ZZ     -44.6396

 Total job time:  9906.48s(wall), 76932.20s(cpu)
        *  Thank you very much for using Q-Chem.  Have a nice day.  *
