 Q-Chem 5.4, Q-Chem, Inc., Pleasanton, CA (2021)
 Q-Chem 5.4.1 for Intel X86 EM64T Linux

User input:
--------------------------------------------------------------
$molecule
0 2
C    2.4557920   -0.8515009   -1.0069010
O    1.8782109    0.3818961   -1.3619737
C    3.5718563   -0.5544407    0.0043107
O    2.9607001   -0.1503609    1.1887488
C    4.5880691    0.4444655   -0.5216427
C    5.6202889    0.8650275    0.4913802
O    5.5902475    0.5186205    1.6741532
C    4.9267224    3.1957539    0.9213163
O    3.6428684    3.0289096    1.3421202
O    5.8009921    3.4030333    1.9313031
H    2.8716440   -1.3526603   -1.8787452
H    1.2885150    0.2275950   -2.1087658
H    4.0669132    1.3264136   -0.8907124
H    5.1115020    0.0273524   -1.3837383
H    6.5070196    1.3667438    0.0855572
H    5.1040625    3.7940754    0.0352098
H    3.0622954    2.9488569    0.5735081
H    5.7326731    2.6675891    2.5614761
O    1.5065436   -1.7325769   -0.4618863
H    1.2409780   -1.3887319    0.4019213
O    4.2015375   -1.8044851    0.3721708
O    4.8799960   -2.3539461   -0.7546043
H    3.6731693    0.1448872    1.7817888
H    5.8005027   -2.1040531   -0.5846392
$end

$rem
BASIS = 6-311++G(2df,2p)
GUI = 2
JOB_TYPE = Frequency
METHOD = wB97M-V
SOLVENT_METHOD = SMD
SCF_ALGORITHM = DIIS_GDM
MAX_SCF_CYCLES = 400
SCF_CONVERGENCE = 7
THRESH = 12
$end

--------------------------------------------------------------

   19    -798.8614409209      5.55e-08  Convergence criterion met
 Total energy in the final basis set =     -798.8521923790
   17    -798.8614344221      3.16e-08  Convergence criterion met
 Total energy in the final basis set =     -798.8521912151
   17    -798.8614455329      3.19e-08  Convergence criterion met
 Total energy in the final basis set =     -798.8521913870
   17    -798.8614397931      3.15e-08  Convergence criterion met
 Total energy in the final basis set =     -798.8521915377
   17    -798.8614403861      3.16e-08  Convergence criterion met
 Total energy in the final basis set =     -798.8521910819
   17    -798.8614404274      3.15e-08  Convergence criterion met
 Total energy in the final basis set =     -798.8521912221
   17    -798.8614392033      3.20e-08  Convergence criterion met
 Total energy in the final basis set =     -798.8521912229
   17    -798.8614415297      3.16e-08  Convergence criterion met
 Total energy in the final basis set =     -798.8521923314
   17    -798.8614405546      3.17e-08  Convergence criterion met
 Total energy in the final basis set =     -798.8521922152
   17    -798.8614410633      3.16e-08  Convergence criterion met
 Total energy in the final basis set =     -798.8521923183
 Frequency:       -60.88                  27.07                  45.07
 Force Cnst:      0.0102                 0.0027                 0.0075
 Red. Mass:       4.6663                 6.3290                 6.2671
 IR Intens:      100.331                  1.982                  3.457
 Frequency:        62.36                  72.09                 103.22
 Force Cnst:      0.0126                 0.0217                 0.0389
 Red. Mass:       5.4862                 7.1011                 6.1910
 IR Intens:        0.453                  4.030                  7.901
 Frequency:       143.84                 146.74                 166.45
 Force Cnst:      0.0367                 0.0905                 0.0758
 Red. Mass:       3.0133                 7.1337                 4.6442
 IR Intens:       31.542                  9.778                 23.384
 Frequency:       188.63                 238.16                 272.93
 Force Cnst:      0.1021                 0.2075                 0.0731
 Red. Mass:       4.8716                 6.2102                 1.6650
 IR Intens:       34.685                 13.556                 96.982
 Frequency:       277.34                 299.69                 315.48
 Force Cnst:      0.0657                 0.2683                 0.1454
 Red. Mass:       1.4487                 5.0703                 2.4801
 IR Intens:      115.239                 40.461                133.588
 Frequency:       347.09                 363.69                 367.62
 Force Cnst:      0.1419                 0.1340                 0.1522
 Red. Mass:       1.9992                 1.7196                 1.9109
 IR Intens:       29.606                192.675                 80.245
 Frequency:       376.31                 386.18                 422.38
 Force Cnst:      0.1294                 0.1340                 0.1291
 Red. Mass:       1.5513                 1.5255                 1.2282
 IR Intens:      242.515                 77.828                261.664
 Frequency:       487.90                 519.00                 528.62
 Force Cnst:      0.5238                 0.8106                 0.7069
 Red. Mass:       3.7348                 5.1079                 4.2938
 IR Intens:       11.418                 64.291                 81.265
 Frequency:       563.83                 573.36                 629.36
 Force Cnst:      0.8742                 0.2509                 1.1075
 Red. Mass:       4.6671                 1.2955                 4.7455
 IR Intens:       34.367                219.791                 33.750
 Frequency:       759.88                 778.98                 845.63
 Force Cnst:      0.8643                 0.7117                 1.9552
 Red. Mass:       2.5405                 1.9906                 4.6405
 IR Intens:       56.684                 19.946                 43.489
 Frequency:       864.91                 929.12                 974.71
 Force Cnst:      0.6620                 1.0486                 1.3784
 Red. Mass:       1.5020                 2.0616                 2.4624
 IR Intens:       59.799                 51.999                 38.792
 Frequency:      1023.84                1049.33                1055.41
 Force Cnst:      3.5239                 2.3591                 1.5363
 Red. Mass:       5.7057                 3.6365                 2.3409
 IR Intens:       69.354                236.827                136.171
 Frequency:      1084.23                1141.13                1175.87
 Force Cnst:      1.8977                 3.5382                 1.5409
 Red. Mass:       2.7398                 4.6117                 1.8915
 IR Intens:      271.247                475.706                123.553
 Frequency:      1203.41                1212.68                1230.38
 Force Cnst:      0.9867                 0.9808                 1.3124
 Red. Mass:       1.1564                 1.1320                 1.4714
 IR Intens:       52.024                137.759                 60.542
 Frequency:      1260.55                1293.73                1329.50
 Force Cnst:      2.2187                 2.2171                 2.8742
 Red. Mass:       2.3699                 2.2483                 2.7599
 IR Intens:      177.937                401.112                 60.827
 Frequency:      1349.65                1356.87                1397.10
 Force Cnst:      2.0090                 1.5401                 1.4942
 Red. Mass:       1.8719                 1.4198                 1.2993
 IR Intens:       11.460                 94.031                125.177
 Frequency:      1405.21                1411.29                1417.53
 Force Cnst:      1.5925                 1.3700                 1.6164
 Red. Mass:       1.3688                 1.1674                 1.3653
 IR Intens:      174.989                 67.493                 77.447
 Frequency:      1431.74                1434.01                1495.13
 Force Cnst:      1.4593                 1.5373                 2.7052
 Red. Mass:       1.2082                 1.2688                 2.0540
 IR Intens:        4.186                161.645                 23.153
 Frequency:      1652.96                3033.07                3088.33
 Force Cnst:      9.8680                 5.8903                 5.9972
 Red. Mass:       6.1299                 1.0867                 1.0672
 IR Intens:      446.172                 90.267                  7.549
 Frequency:      3124.52                3132.86                3179.11
 Force Cnst:      6.2577                 6.3280                 6.4896
 Red. Mass:       1.0879                 1.0943                 1.0898
 IR Intens:       25.764                  4.207                 24.747
 Frequency:      3646.63                3710.95                3754.07
 Force Cnst:      8.3517                 8.6394                 8.8739
 Red. Mass:       1.0660                 1.0648                 1.0687
 IR Intens:      444.697                111.902                135.303
 Frequency:      3777.15                3797.63                3823.99
 Force Cnst:      8.9576                 9.0582                 9.1908
 Red. Mass:       1.0657                 1.0660                 1.0668
 IR Intens:      129.130                225.793                139.816

 STANDARD THERMODYNAMIC QUANTITIES AT   298.15 K  AND     1.00 ATM

   This Molecule has  1 Imaginary Frequencies
   Zero point vibrational energy:      113.733 kcal/mol

   Atom    1 Element C  Has Mass   12.00000
   Atom    2 Element O  Has Mass   15.99491
   Atom    3 Element C  Has Mass   12.00000
   Atom    4 Element O  Has Mass   15.99491
   Atom    5 Element C  Has Mass   12.00000
   Atom    6 Element C  Has Mass   12.00000
   Atom    7 Element O  Has Mass   15.99491
   Atom    8 Element C  Has Mass   12.00000
   Atom    9 Element O  Has Mass   15.99491
   Atom   10 Element O  Has Mass   15.99491
   Atom   11 Element H  Has Mass    1.00783
   Atom   12 Element H  Has Mass    1.00783
   Atom   13 Element H  Has Mass    1.00783
   Atom   14 Element H  Has Mass    1.00783
   Atom   15 Element H  Has Mass    1.00783
   Atom   16 Element H  Has Mass    1.00783
   Atom   17 Element H  Has Mass    1.00783
   Atom   18 Element H  Has Mass    1.00783
   Atom   19 Element O  Has Mass   15.99491
   Atom   20 Element H  Has Mass    1.00783
   Atom   21 Element O  Has Mass   15.99491
   Atom   22 Element O  Has Mass   15.99491
   Atom   23 Element H  Has Mass    1.00783
   Atom   24 Element H  Has Mass    1.00783
   Molecular Mass:   199.045410 amu
   Principal axes and moments of inertia in amu*Bohr^2:
                             1           2           3
    Eigenvalues --     1458.06642  3654.10209  4399.53230
          X               0.44319     0.82852    -0.34227
          Y               0.80608    -0.53537    -0.25221
          Z               0.39220     0.16412     0.90512
   Rotational Symmetry Number is   1
   The Molecule is an Asymmetric Top
   Translational Enthalpy:        0.889 kcal/mol
   Rotational Enthalpy:           0.889 kcal/mol
   Vibrational Enthalpy:        121.658 kcal/mol
   gas constant (RT):             0.592 kcal/mol
   Translational Entropy:        41.770  cal/mol.K
   Rotational Entropy:           31.528  cal/mol.K
   Vibrational Entropy:          52.233  cal/mol.K

   Total Enthalpy:              124.028 kcal/mol
   Total Entropy:               125.530  cal/mol.K
 Total job time:  49107.55s(wall), 690910.18s(cpu)
        *  Thank you very much for using Q-Chem.  Have a nice day.  *
 Q-Chem 5.4, Q-Chem, Inc., Pleasanton, CA (2021)
 Q-Chem 5.4.1 for Intel X86 EM64T Linux

User input:
--------------------------------------------------------------

$molecule
read
$end

$rem
JOBTYPE            rpath
SCF_GUESS          read
RPATH_MAX_CYCLES   30
BASIS = 6-311++G(2df,2p)
METHOD = wB97M-V
SOLVENT_METHOD = SMD
SCF_ALGORITHM = DIIS_GDM
SCF_CONVERGENCE = 7
THRESH = 12
$end
--------------------------------------------------------------

   17    -798.8614409207      3.17e-08  Convergence criterion met
 Total energy in the final basis set =     -798.8521923788
   17    -798.8614758804      7.53e-08  Convergence criterion met
 Total energy in the final basis set =     -798.8521789605
   17    -798.8614566968      6.54e-08  Convergence criterion met
 Total energy in the final basis set =     -798.8521838050
   17    -798.8614482578      6.44e-08  Convergence criterion met
 Total energy in the final basis set =     -798.8521877151

             Standard Nuclear Orientation (Angstroms)
    I     Atom           X                Y                Z
 ----------------------------------------------------------------
    1      C       2.4558655651    -0.8519044616    -1.0070678134
    2      O       1.8789546352     0.3817464836    -1.3623356363
    3      C       3.5719241131    -0.5552319439     0.0042593280
    4      O       2.9607134326    -0.1506464617     1.1884929450
    5      C       4.5886595426     0.4430654397    -0.5217949981
    6      C       5.6215965537     0.8625404364     0.4906651252
    7      O       5.5912228517     0.5178838134     1.6735486985
    8      C       4.9259342763     3.1991488663     0.9215236378
    9      O       3.6421817703     3.0300925500     1.3427111444
   10      O       5.8004352556     3.4050385933     1.9319215835
   11      H       2.8716153901    -1.3533479601    -1.8787971508
   12      H       1.2892900251     0.2276793167    -2.1092016382
   13      H       4.0682511713     1.3259560192    -0.8897768044
   14      H       5.1112601772     0.0262393293    -1.3845258075
   15      H       6.5077123508     1.3652966293     0.0847447500
   16      H       5.1020822099     3.8002526175     0.0370495990
   17      H       3.0617464183     2.9495607664     0.5740627216
   18      H       5.7332175193     2.6680017767     2.5603051938
   19      O       1.5061451641    -1.7324808649    -0.4620882922
   20      H       1.2406071193    -1.3884368566     0.4016485769
   21      O       4.2010557253    -1.8054267917     0.3724129404
   22      O       4.8795391479    -2.3552101156    -0.7541948240
   23      H       3.6729642490     0.1443871143     1.7818121198
   24      H       5.8001243939    -2.1057422955    -0.5840175464
 ----------------------------------------------------------------

   16    -798.8614444370      8.04e-08  Convergence criterion met
 Total energy in the final basis set =     -798.8521899840

                    Orbital Energies (a.u.)
 --------------------------------------------------------------

 Alpha MOs
 -- Occupied --
-19.4031 -19.3980 -19.3734 -19.3693 -19.3550 -19.3480 -19.3469 -19.3370
-10.4654 -10.4499 -10.4481 -10.4413 -10.3494  -1.2783  -1.2324  -1.2120
 -1.1886  -1.1737  -1.1651  -1.1375  -1.0372  -0.9087  -0.8355  -0.7928
 -0.7441  -0.7132  -0.6916  -0.6851  -0.6523  -0.6353  -0.6300  -0.6148
 -0.5951  -0.5894  -0.5788  -0.5689  -0.5570  -0.5445  -0.5295  -0.5205
 -0.5086  -0.4962  -0.4828  -0.4718  -0.4580  -0.4522  -0.4413  -0.4323
 -0.4135  -0.4096  -0.3962  -0.3660  -0.2652

 Beta MOs
 -- Occupied --
-19.4030 -19.3980 -19.3699 -19.3671 -19.3549 -19.3480 -19.3469 -19.3344
-10.4654 -10.4481 -10.4412 -10.4388 -10.3493  -1.2783  -1.2237  -1.2119
 -1.1868  -1.1709  -1.1582  -1.1375  -1.0372  -0.9078  -0.8345  -0.7762
 -0.7431  -0.7102  -0.6914  -0.6781  -0.6522  -0.6348  -0.6192  -0.6114
 -0.5889  -0.5828  -0.5749  -0.5673  -0.5510  -0.5421  -0.5283  -0.5151
 -0.4955  -0.4865  -0.4816  -0.4645  -0.4542  -0.4461  -0.4326  -0.4318
 -0.4132  -0.4090  -0.3958  -0.3637

          Ground-State Mulliken Net Atomic Charges

     Atom                 Charge (a.u.)    Spin (a.u.)
  --------------------------------------------------------
      1 C                    -0.069830      -0.000128
      2 O                    -0.426364       0.000538
      3 C                     0.014225       0.010254
      4 O                    -0.392031       0.003232
      5 C                    -0.206936      -0.029795
      6 C                    -0.199121       0.086075
      7 O                    -0.441305       0.083219
      8 C                    -0.152621       0.693210
      9 O                    -0.294663       0.089334
     10 O                    -0.343521       0.057602
     11 H                     0.300234       0.000088
     12 H                     0.341650       0.000121
     13 H                     0.223121       0.001993
     14 H                     0.285585       0.004202
     15 H                     0.309874      -0.002904
     16 H                     0.296527       0.000350
     17 H                     0.319927      -0.003085
     18 H                     0.338397       0.007365
     19 O                    -0.461232       0.000147
     20 H                     0.350093      -0.000302
     21 O                    -0.159260      -0.000558
     22 O                    -0.288336       0.000787
     23 H                     0.316913      -0.001530
     24 H                     0.338674      -0.000215
  --------------------------------------------------------
  Sum of atomic charges =    -0.000000

                    Cartesian Multipole Moments
 -----------------------------------------------------------------
    Charge (ESU x 10^10)
                -0.0000
    Dipole Moment (Debye)
         X       1.9841      Y       4.2170      Z      -5.9888
       Tot       7.5885
    Quadrupole Moments (Debye-Ang)
        XX     -58.0010     XY       8.7241     YY     -88.8207
        XZ     -26.5379     YZ      -7.5203     ZZ     -75.9282
