 Q-Chem 5.4, Q-Chem, Inc., Pleasanton, CA (2021)
 Q-Chem 5.4.1 for Intel X86 EM64T Linux

User input:
--------------------------------------------------------------
$molecule
0 2
C        -0.5828554556    0.0079620555    1.0047328224
C        -0.9715256668   -1.0946461671    1.7337512514
C        -1.9009861576   -2.0089829137    1.1929078323
C        -2.5007924987   -1.7212688885   -0.0500854555
C        -2.1026382871   -0.6149735070   -0.7679815329
C        -1.1353558085    0.2539201170   -0.2550974631
C        -0.6690463045    1.4379569720   -1.0573606203
H         0.1458182125    0.6986400714    1.4094684260
H        -0.5568644134   -1.2780887273    2.7156925213
H        -2.3210258708   -2.7776337888    1.8229663574
H        -3.2533927601   -2.3898016079   -0.4440437548
H        -2.5433219524   -0.4051147494   -1.7342941574
H        -1.3539312003    1.6249483970   -1.8853478598
O         0.6639403614    1.2528810526   -1.5450546710
H        -0.6338478206    2.3266910189   -0.4298197470
H         0.6536943155    0.5087240125   -2.1571198136
O        -0.4933327975   -3.4032687968    0.4557014232
H         0.1079827044   -3.3015171503    1.2081860416
$end

$rem
BASIS = 6-311++G(2df,2p)
GUI = 2
JOB_TYPE = Frequency
METHOD = wB97M-V
SOLVENT_METHOD = SMD
SCF_ALGORITHM = DIIS_GDM
MAX_SCF_CYCLES = 400
SCF_CONVERGENCE = 7
THRESH = 12
$end

--------------------------------------------------------------

   24    -422.5060618911      4.14e-08  Convergence criterion met
 Total energy in the final basis set =     -422.5004716333
   21    -422.5060613735      4.31e-08  Convergence criterion met
 Total energy in the final basis set =     -422.5004708125
   21    -422.5060609250      4.15e-08  Convergence criterion met
 Total energy in the final basis set =     -422.5004709676
   21    -422.5060613464      4.27e-08  Convergence criterion met
 Total energy in the final basis set =     -422.5004706377
   21    -422.5060604463      4.29e-08  Convergence criterion met
 Total energy in the final basis set =     -422.5004706367
   21    -422.5060611163      4.19e-08  Convergence criterion met
 Total energy in the final basis set =     -422.5004707173
   21    -422.5060606944      4.29e-08  Convergence criterion met
 Total energy in the final basis set =     -422.5004705742
   21    -422.5060612902      4.31e-08  Convergence criterion met
 Frequency:      -251.08                  36.85                  77.87
 Force Cnst:      0.4274                 0.0026                 0.0221
 Red. Mass:      11.5074                 3.3108                 6.1962
 IR Intens:      185.291                  7.086                  1.301
 Frequency:       129.81                 134.01                 164.63
 Force Cnst:      0.0374                 0.0121                 0.0970
 Red. Mass:       3.7714                 1.1431                 6.0761
 IR Intens:       13.364                170.321                  9.386
 Frequency:       295.17                 310.56                 379.43
 Force Cnst:      0.1193                 0.1034                 0.1498
 Red. Mass:       2.3246                 1.8205                 1.7666
 IR Intens:       46.734                 94.470                129.091
 Frequency:       402.57                 479.94                 576.12
 Force Cnst:      0.2709                 0.4961                 0.8153
 Red. Mass:       2.8371                 3.6558                 4.1689
 IR Intens:        0.344                 55.924                 33.171
 Frequency:       616.27                 717.29                 729.27
 Force Cnst:      1.4264                 0.4011                 0.5865
 Red. Mass:       6.3745                 1.3231                 1.8719
 IR Intens:        2.217                 78.129                 18.703
 Frequency:       788.93                 840.47                 857.31
 Force Cnst:      0.6661                 1.0790                 0.5463
 Red. Mass:       1.8164                 2.5925                 1.2616
 IR Intens:      210.571                 40.575                  0.148
 Frequency:       949.04                 972.40                 999.33
 Force Cnst:      0.7521                 0.8345                 1.3267
 Red. Mass:       1.4173                 1.4979                 2.2548
 IR Intens:      132.673                 65.873                 57.331
 Frequency:      1014.74                1024.43                1029.96
 Force Cnst:      0.8443                 1.7667                 1.0791
 Red. Mass:       1.3916                 2.8572                 1.7265
 IR Intens:        0.652                 28.656                 49.437
 Frequency:      1041.13                1099.64                1159.51
 Force Cnst:      2.4385                 1.0639                 0.8690
 Red. Mass:       3.8183                 1.4934                 1.0970
 IR Intens:      118.616                  6.466                  0.345
 Frequency:      1184.90                1196.24                1244.84
 Force Cnst:      0.9294                 0.9678                 2.5648
 Red. Mass:       1.1236                 1.1478                 2.8092
 IR Intens:       23.474                 39.310                 25.539
 Frequency:      1317.93                1352.33                1385.42
 Force Cnst:      3.7166                 1.5635                 1.3516
 Red. Mass:       3.6316                 1.4511                 1.1952
 IR Intens:       16.315                  5.077                 24.055
 Frequency:      1414.90                1490.60                1491.44
 Force Cnst:      1.5293                 2.0325                 1.8519
 Red. Mass:       1.2965                 1.5526                 1.4131
 IR Intens:       81.553                  9.445                 10.938
 Frequency:      1509.04                1598.40                1640.09
 Force Cnst:      3.0170                 8.5207                 8.7516
 Red. Mass:       2.2486                 5.6605                 5.5221
 IR Intens:       43.759                  7.108                314.017
 Frequency:      3067.75                3125.12                3189.56
 Force Cnst:      5.8853                 6.3579                 6.5306
 Red. Mass:       1.0614                 1.1049                 1.0895
 IR Intens:       76.899                 27.900                 11.952
 Frequency:      3190.26                3207.20                3211.50
 Force Cnst:      6.5284                 6.6287                 6.6460
 Red. Mass:       1.0887                 1.0938                 1.0937
 IR Intens:        8.539                  6.299                 16.247
 Frequency:      3228.89                3779.31                3824.16
 Force Cnst:      6.7236                 8.9838                 9.1905
 Red. Mass:       1.0946                 1.0675                 1.0666
 IR Intens:       19.619                263.556                 95.734

 STANDARD THERMODYNAMIC QUANTITIES AT   298.15 K  AND     1.00 ATM

   This Molecule has  1 Imaginary Frequencies
   Zero point vibrational energy:       90.744 kcal/mol

   Atom    1 Element C  Has Mass   12.00000
   Atom    2 Element C  Has Mass   12.00000
   Atom    3 Element C  Has Mass   12.00000
   Atom    4 Element C  Has Mass   12.00000
   Atom    5 Element C  Has Mass   12.00000
   Atom    6 Element C  Has Mass   12.00000
   Atom    7 Element C  Has Mass   12.00000
   Atom    8 Element H  Has Mass    1.00783
   Atom    9 Element H  Has Mass    1.00783
   Atom   10 Element H  Has Mass    1.00783
   Atom   11 Element H  Has Mass    1.00783
   Atom   12 Element H  Has Mass    1.00783
   Atom   13 Element H  Has Mass    1.00783
   Atom   14 Element O  Has Mass   15.99491
   Atom   15 Element H  Has Mass    1.00783
   Atom   16 Element H  Has Mass    1.00783
   Atom   17 Element O  Has Mass   15.99491
   Atom   18 Element H  Has Mass    1.00783
   Molecular Mass:   125.060290 amu
   Principal axes and moments of inertia in amu*Bohr^2:
                             1           2           3
    Eigenvalues --      622.70036  1758.94605  1828.55758
          X               0.27809     0.87368    -0.39919
          Y               0.84265    -0.02240     0.53800
          Z              -0.46110     0.48599     0.74243
   Rotational Symmetry Number is   1
   The Molecule is an Asymmetric Top
   Translational Enthalpy:        0.889 kcal/mol
   Rotational Enthalpy:           0.889 kcal/mol
   Vibrational Enthalpy:         94.803 kcal/mol
   gas constant (RT):             0.592 kcal/mol
   Translational Entropy:        40.384  cal/mol.K
   Rotational Entropy:           29.083  cal/mol.K
   Vibrational Entropy:          26.252  cal/mol.K

   Total Enthalpy:               97.173 kcal/mol
   Total Entropy:                95.720  cal/mol.K
 Total job time:  14222.71s(wall), 366128.50s(cpu)
        *  Thank you very much for using Q-Chem.  Have a nice day.  *
 Q-Chem 5.4, Q-Chem, Inc., Pleasanton, CA (2021)
 Q-Chem 5.4.1 for Intel X86 EM64T Linux

User input:
--------------------------------------------------------------

$molecule
read
$end

$rem
JOBTYPE            rpath
SCF_GUESS          read
RPATH_MAX_CYCLES   30
BASIS = 6-311++G(2df,2p)
METHOD = wB97M-V
SOLVENT_METHOD = SMD
SCF_ALGORITHM = DIIS_GDM
SCF_CONVERGENCE = 7
THRESH = 12
$end
--------------------------------------------------------------

 Total energy in the final basis set =     -422.5241486124
   17    -422.5300396465      5.73e-08  Convergence criterion met
 Total energy in the final basis set =     -422.5243890918
   16    -422.5296662885      9.77e-08  Convergence criterion met
 Total energy in the final basis set =     -422.5239806472
   17    -422.5301360937      7.21e-08  Convergence criterion met
 Total energy in the final basis set =     -422.5244754183
   17    -422.5286389392      6.18e-08  Convergence criterion met
 Total energy in the final basis set =     -422.5229644943
   18    -422.5302299496      8.10e-08  Convergence criterion met
 Total energy in the final basis set =     -422.5245678804
   18    -422.5301977487      4.86e-08  Convergence criterion met
 Total energy in the final basis set =     -422.5245355572
   17    -422.5302463081      6.49e-08  Convergence criterion met
 Total energy in the final basis set =     -422.5245842280

                    Orbital Energies (a.u.)
 --------------------------------------------------------------

 Alpha MOs
 -- Occupied --
-19.3383 -19.3373 -10.3977 -10.3854 -10.3612 -10.3488 -10.3485 -10.3427
-10.3427  -1.1541  -1.1509  -0.9790  -0.8837  -0.8784  -0.7980  -0.7242
 -0.7185  -0.6356  -0.6206  -0.6096  -0.5744  -0.5641  -0.5471  -0.5287
 -0.5207  -0.5025  -0.4829  -0.4475  -0.4434  -0.4203  -0.3954  -0.3918
 -0.3635  -0.2755

 Beta MOs
 -- Occupied --
-19.3372 -19.3349 -10.3984 -10.3859 -10.3537 -10.3453 -10.3452 -10.3436
-10.3433  -1.1516  -1.1457  -0.9720  -0.8741  -0.8732  -0.7967  -0.7187
 -0.7104  -0.6329  -0.6143  -0.6079  -0.5686  -0.5581  -0.5405  -0.5259
 -0.5172  -0.4968  -0.4795  -0.4408  -0.4236  -0.4160  -0.3905  -0.3883
 -0.3472

          Ground-State Mulliken Net Atomic Charges

     Atom                 Charge (a.u.)    Spin (a.u.)
  --------------------------------------------------------
      1 C                    -0.091227      -0.131597
      2 C                    -0.211995       0.331356
      3 C                    -0.589928       0.001789
      4 C                    -0.160405       0.376448
      5 C                    -0.633587      -0.125978
      6 C                     0.565332       0.452745
      7 C                    -0.544276       0.006062
      8 H                     0.279426       0.004861
      9 H                     0.316867      -0.007484
     10 H                     0.208837       0.018654
     11 H                     0.307765      -0.008059
     12 H                     0.278872       0.006537
     13 H                     0.216917       0.000465
     14 O                    -0.395092       0.020806
     15 H                     0.206944       0.012066
     16 H                     0.329320      -0.000938
     17 O                    -0.410401       0.037090
     18 H                     0.326632       0.005179
  --------------------------------------------------------
  Sum of atomic charges =    -0.000000

                    Cartesian Multipole Moments
 -----------------------------------------------------------------
    Charge (ESU x 10^10)
                -0.0000
    Dipole Moment (Debye)
         X      -1.6461      Y       0.2318      Z       1.2964
       Tot       2.1080
    Quadrupole Moments (Debye-Ang)
        XX     -52.9649     XY      -3.5599     YY     -60.9702
        XZ       3.8716     YZ      -4.2687     ZZ     -45.1122

             Standard Nuclear Orientation (Angstroms)
    I     Atom           X                Y                Z
 ----------------------------------------------------------------
    1      C      -0.5828554556     0.0079620555     1.0047328224
    2      C      -0.9715256668    -1.0946461671     1.7337512514
    3      C      -1.9009861576    -2.0089829137     1.1929078323
    4      C      -2.5007924987    -1.7212688885    -0.0500854555
    5      C      -2.1026382871    -0.6149735070    -0.7679815329
    6      C      -1.1353558085     0.2539201170    -0.2550974631
    7      C      -0.6690463045     1.4379569720    -1.0573606203
    8      H       0.1458182125     0.6986400714     1.4094684260
    9      H      -0.5568644134    -1.2780887273     2.7156925213
   10      H      -2.3210258708    -2.7776337888     1.8229663574
   11      H      -3.2533927601    -2.3898016079    -0.4440437548
   12      H      -2.5433219524    -0.4051147494    -1.7342941574
   13      H      -1.3539312003     1.6249483970    -1.8853478598
   14      O       0.6639403614     1.2528810526    -1.5450546710
   15      H      -0.6338478206     2.3266910189    -0.4298197470
   16      H       0.6536943155     0.5087240125    -2.1571198136
   17      O      -0.4933327975    -3.4032687968     0.4557014232
   18      H       0.1079827044    -3.3015171503     1.2081860416
 ----------------------------------------------------------------

 Total job time:  4726.77s(wall), 121411.93s(cpu)
        *  Thank you very much for using Q-Chem.  Have a nice day.  *
