 Q-Chem 5.4, Q-Chem, Inc., Pleasanton, CA (2021)
 Q-Chem 5.4.1 for Intel X86 EM64T Linux

User input:
--------------------------------------------------------------
$molecule
0 2
C   -0.5326998    0.0025343    1.0230089
C   -0.9680984   -1.1061387    1.7802259
C   -1.8563514   -2.0070855    1.2371255
C   -2.3613366   -1.7976328   -0.0475639
C   -1.9848859   -0.6759702   -0.7817256
C   -1.0941961    0.2408942   -0.2544840
C   -0.6553643    1.4407344   -1.0471338
H    0.0088052    0.7990370    1.5126621
H   -0.5776117   -1.2486966    2.7783293
H   -2.3448522   -2.7134772    1.9865995
H   -3.0620138   -2.5040953   -0.4709462
H   -2.4004170   -0.5102611   -1.7676879
H   -1.3991399    1.6865072   -1.8048774
O    0.6226437    1.2217846   -1.6668667
H   -0.5244144    2.3000985   -0.3928305
H    0.5012626    0.5717335   -2.3685593
O   -0.6213685   -2.9233212    0.5144905
H   -0.1974429   -3.6602177    0.9874352
$end

$rem
BASIS = 6-311++G(2df,2p)
GUI = 2
JOB_TYPE = Frequency
METHOD = wB97M-V
SCF_ALGORITHM = DIIS_GDM
MAX_SCF_CYCLES = 400
SCF_CONVERGENCE = 6
THRESH = 11
SYMMETRY_IGNORE = 1
solvent_method = SMD
$end

--------------------------------------------------------------

   18    -422.4783750267      9.67e-07  Convergence criterion met
 Total energy in the final basis set =     -422.4725165106
   16    -422.4783189981      6.17e-07  Convergence criterion met
 Total energy in the final basis set =     -422.4724600140
   16    -422.4784298626      6.03e-07  Convergence criterion met
 Total energy in the final basis set =     -422.4725718113
   16    -422.4783480834      6.03e-07  Convergence criterion met
 Total energy in the final basis set =     -422.4724890649
   16    -422.4784000712      6.09e-07  Convergence criterion met
 Total energy in the final basis set =     -422.4725420543
   16    -422.4784103048      6.22e-07  Convergence criterion met
 Total energy in the final basis set =     -422.4725516631
   15    -422.4783380158      7.30e-07  Convergence criterion met
 Total energy in the final basis set =     -422.4724796212
   16    -422.4784454117      6.13e-07  Convergence criterion met
 Frequency:      -469.52                -387.42                 -27.62
 Force Cnst:      1.0977                 0.1001                 0.0014
 Red. Mass:       8.4512                 1.1321                 3.1447
 IR Intens:      107.797                279.359                  7.407
 Frequency:        54.86                 215.46                 248.11
 Force Cnst:      0.0092                 0.1327                 0.1494
 Red. Mass:       5.1849                 4.8524                 4.1182
 IR Intens:        1.824                  6.473                  0.312
 Frequency:       291.07                 335.55                 362.19
 Force Cnst:      0.0702                 0.2269                 0.1642
 Red. Mass:       1.4068                 3.4207                 2.1245
 IR Intens:      186.166                 45.873                 41.469
 Frequency:       431.39                 483.45                 552.04
 Force Cnst:      0.3073                 0.4202                 0.8475
 Red. Mass:       2.8027                 3.0516                 4.7202
 IR Intens:       21.239                121.645                 11.542
 Frequency:       613.43                 706.44                 771.82
 Force Cnst:      1.5100                 0.8449                 0.6976
 Red. Mass:       6.8107                 2.8734                 1.9875
 IR Intens:        5.247                 11.298                103.939
 Frequency:       797.71                 826.49                 868.30
 Force Cnst:      0.5258                 0.8446                 0.5681
 Red. Mass:       1.4024                 2.0987                 1.2788
 IR Intens:        9.896                 10.660                139.241
 Frequency:       948.54                 953.99                 980.12
 Force Cnst:      0.8114                 0.8098                 0.8131
 Red. Mass:       1.5307                 1.5103                 1.4366
 IR Intens:       23.676                 28.414                  6.293
 Frequency:      1010.57                1019.62                1023.37
 Force Cnst:      1.2465                 3.4907                 2.5405
 Red. Mass:       2.0716                 5.6988                 4.1172
 IR Intens:        0.465                159.171                 24.390
 Frequency:      1058.44                1159.32                1174.08
 Force Cnst:      1.3461                 0.9801                 0.9771
 Red. Mass:       2.0394                 1.2377                 1.2030
 IR Intens:        2.925                 33.670                 27.826
 Frequency:      1215.11                1219.28                1226.85
 Force Cnst:      0.9727                 0.9845                 2.3170
 Red. Mass:       1.1182                 1.1239                 2.6127
 IR Intens:       16.159                  0.366                 25.810
 Frequency:      1291.42                1346.01                1375.46
 Force Cnst:      1.8961                 1.5061                 1.3543
 Red. Mass:       1.9297                 1.4110                 1.2149
 IR Intens:       39.469                  4.473                 14.377
 Frequency:      1401.37                1483.93                1489.06
 Force Cnst:      1.4312                 1.4278                 2.6001
 Red. Mass:       1.2369                 1.1005                 1.9903
 IR Intens:       71.828                  2.173                 11.146
 Frequency:      1534.07                1573.75                1704.12
 Force Cnst:      3.6901                 6.6236                 9.6295
 Red. Mass:       2.6613                 4.5391                 5.6280
 IR Intens:       22.482                 18.631                  5.289
 Frequency:      2694.24                3072.64                3130.31
 Force Cnst:      4.6789                 5.8973                 6.3857
 Red. Mass:       1.0940                 1.0602                 1.1061
 IR Intens:       23.428                 71.107                 33.881
 Frequency:      3187.68                3205.04                3209.32
 Force Cnst:      6.5271                 6.5972                 6.6360
 Red. Mass:       1.0902                 1.0900                 1.0935
 IR Intens:       12.113                  6.244                 12.899
 Frequency:      3217.55                3700.99                3817.35
 Force Cnst:      6.6707                 8.6143                 9.1584
 Red. Mass:       1.0936                 1.0674                 1.0667
 IR Intens:       11.091                 74.639                102.961

 STANDARD THERMODYNAMIC QUANTITIES AT   298.15 K  AND     1.00 ATM

   This Molecule has  3 Imaginary Frequencies
   Zero point vibrational energy:       90.037 kcal/mol

   Atom    1 Element C  Has Mass   12.00000
   Atom    2 Element C  Has Mass   12.00000
   Atom    3 Element C  Has Mass   12.00000
   Atom    4 Element C  Has Mass   12.00000
   Atom    5 Element C  Has Mass   12.00000
   Atom    6 Element C  Has Mass   12.00000
   Atom    7 Element C  Has Mass   12.00000
   Atom    8 Element H  Has Mass    1.00783
   Atom    9 Element H  Has Mass    1.00783
   Atom   10 Element H  Has Mass    1.00783
   Atom   11 Element H  Has Mass    1.00783
   Atom   12 Element H  Has Mass    1.00783
   Atom   13 Element H  Has Mass    1.00783
   Atom   14 Element O  Has Mass   15.99491
   Atom   15 Element H  Has Mass    1.00783
   Atom   16 Element H  Has Mass    1.00783
   Atom   17 Element O  Has Mass   15.99491
   Atom   18 Element H  Has Mass    1.00783
   Molecular Mass:   125.060290 amu
   Principal axes and moments of inertia in amu*Bohr^2:
                             1           2           3
    Eigenvalues --      545.65031  1645.67764  1746.85888
          X               0.30394     0.60947     0.73223
          Y               0.80384     0.24846    -0.54047
          Z              -0.51133     0.75287    -0.41440
   Rotational Symmetry Number is   1
   The Molecule is an Asymmetric Top
   Translational Enthalpy:        0.889 kcal/mol
   Rotational Enthalpy:           0.889 kcal/mol
   Vibrational Enthalpy:         92.971 kcal/mol
   gas constant (RT):             0.592 kcal/mol
   Translational Entropy:        40.384  cal/mol.K
   Rotational Entropy:           28.841  cal/mol.K
   Vibrational Entropy:          16.805  cal/mol.K

   Total Enthalpy:               95.341 kcal/mol
   Total Entropy:                86.030  cal/mol.K
 Total job time:  11278.64s(wall), 289485.51s(cpu)
        *  Thank you very much for using Q-Chem.  Have a nice day.  *
 Q-Chem 5.4, Q-Chem, Inc., Pleasanton, CA (2021)
 Q-Chem 5.4.1 for Intel X86 EM64T Linux

User input:
--------------------------------------------------------------

$rem
JOBTYPE = ts
SCF_GUESS = read
GEOM_OPT_HESSIAN = read
MAX_SCF_CYCLES = 350
GEOM_OPT_DMAX = 60
GEOM_OPT_MAX_CYCLES = 250
METHOD = wB97M-v
BASIS = 6-311++G(2df,2p)
SCF_CONVERGENCE = 7
THRESH = 12
SCF_ALGORITHM = DIIS_GDM
solvent_method = SMD
$end

$molecule
read
$end
--------------------------------------------------------------

   21    -422.5060647247      5.80e-08  Convergence criterion met
 Total energy in the final basis set =     -422.5004541705
   21    -422.5060646865      5.41e-08  Convergence criterion met
 Total energy in the final basis set =     -422.5004575061
   21    -422.5060652156      5.29e-08  Convergence criterion met
 Total energy in the final basis set =     -422.5004608141
   21    -422.5060660265      5.00e-08  Convergence criterion met
 Total energy in the final basis set =     -422.5004647232
   21    -422.5060668056      4.85e-08  Convergence criterion met
 Total energy in the final basis set =     -422.5004686323
   21    -422.5060650544      4.55e-08  Convergence criterion met
 Total energy in the final basis set =     -422.5004709186

             Standard Nuclear Orientation (Angstroms)
    I     Atom           X                Y                Z
 ----------------------------------------------------------------
    1      C      -0.5828554556     0.0079620555     1.0047328224
    2      C      -0.9715256668    -1.0946461671     1.7337512514
    3      C      -1.9009861576    -2.0089829137     1.1929078323
    4      C      -2.5007924987    -1.7212688885    -0.0500854555
    5      C      -2.1026382871    -0.6149735070    -0.7679815329
    6      C      -1.1353558085     0.2539201170    -0.2550974631
    7      C      -0.6690463045     1.4379569720    -1.0573606203
    8      H       0.1458182125     0.6986400714     1.4094684260
    9      H      -0.5568644134    -1.2780887273     2.7156925213
   10      H      -2.3210258708    -2.7776337888     1.8229663574
   11      H      -3.2533927601    -2.3898016079    -0.4440437548
   12      H      -2.5433219524    -0.4051147494    -1.7342941574
   13      H      -1.3539312003     1.6249483970    -1.8853478598
   14      O       0.6639403614     1.2528810526    -1.5450546710
   15      H      -0.6338478206     2.3266910189    -0.4298197470
   16      H       0.6536943155     0.5087240125    -2.1571198136
   17      O      -0.4933327975    -3.4032687968     0.4557014232
   18      H       0.1079827044    -3.3015171503     1.2081860416
 ----------------------------------------------------------------

   21    -422.5060618915      4.14e-08  Convergence criterion met
 Total energy in the final basis set =     -422.5004716337
 Final energy is   -422.500471633735
 **  OPTIMIZATION CONVERGED  **

                    Orbital Energies (a.u.)
 --------------------------------------------------------------

 Alpha MOs
 -- Occupied --
-19.3432 -19.3397 -10.3877 -10.3730 -10.3656 -10.3582 -10.3570 -10.3484
-10.3480  -1.1562  -1.0971  -0.9960  -0.8988  -0.8816  -0.8012  -0.7316
 -0.7130  -0.6413  -0.6122  -0.5806  -0.5664  -0.5524  -0.5472  -0.5334
 -0.5269  -0.5105  -0.4768  -0.4496  -0.4437  -0.4342  -0.4164  -0.3945
 -0.3592  -0.3222

 Beta MOs
 -- Occupied --
-19.3393 -19.3255 -10.3879 -10.3728 -10.3627 -10.3555 -10.3543 -10.3497
-10.3494  -1.1554  -1.0557  -0.9915  -0.8933  -0.8796  -0.8005  -0.7291
 -0.7100  -0.6398  -0.6112  -0.5776  -0.5633  -0.5442  -0.5352  -0.5309
 -0.5241  -0.4817  -0.4739  -0.4481  -0.4329  -0.3972  -0.3936  -0.3623
 -0.3510

          Ground-State Mulliken Net Atomic Charges

     Atom                 Charge (a.u.)    Spin (a.u.)
  --------------------------------------------------------
      1 C                    -0.042407      -0.086282
      2 C                    -0.302406       0.175852
      3 C                    -0.345343      -0.023942
      4 C                    -0.326492       0.181597
      5 C                    -0.566216      -0.078519
      6 C                     0.484523       0.185834
      7 C                    -0.571062       0.002870
      8 H                     0.277788       0.001671
      9 H                     0.313316      -0.003526
     10 H                     0.357781       0.009744
     11 H                     0.294559      -0.003542
     12 H                     0.274694       0.002064
     13 H                     0.212427       0.000320
     14 O                    -0.395412       0.009101
     15 H                     0.212823       0.004378
     16 H                     0.330607      -0.000786
     17 O                    -0.515317       0.632039
     18 H                     0.306137      -0.008875
  --------------------------------------------------------
  Sum of atomic charges =    -0.000000

                    Cartesian Multipole Moments
 -----------------------------------------------------------------
    Charge (ESU x 10^10)
                 0.0000
    Dipole Moment (Debye)
         X      -2.3631      Y       1.8732      Z       1.3064
       Tot       3.2863
    Quadrupole Moments (Debye-Ang)
        XX     -50.6785     XY      -2.4431     YY     -67.2841
        XZ       4.2047     YZ      -3.9616     ZZ     -43.3742

 Total job time:  5697.01s(wall), 147060.22s(cpu)
        *  Thank you very much for using Q-Chem.  Have a nice day.  *
