 Q-Chem 5.4, Q-Chem, Inc., Pleasanton, CA (2021)
 Q-Chem 5.4.2 for Intel X86 EM64T Linux

User input:
--------------------------------------------------------------
$molecule
0 2
C         0.0470648511   -0.1715590294    0.7797293864
C        -0.7269181770   -0.7936306875    1.8871075942
C        -1.6054089047   -2.5986216382    0.9144941470
C        -1.9994750183   -1.9919561799   -0.3959684827
C        -1.8274212870   -0.7465885448   -0.8203541281
C        -1.1453044417    0.3461795945   -0.0425297996
C        -0.7783571972    1.5475240948   -0.9042265548
H         0.5994917899    0.6939126225    1.1680353948
H        -0.3254844076   -1.2763487472    2.7670324440
H        -2.3266889492   -2.4827241455    1.7338591098
H        -2.4880601741   -2.7070580136   -1.0516641277
H        -2.1895058714   -0.4748558750   -1.8057745261
H        -1.6552636536    1.9178647383   -1.4362539622
O         0.2580650109    1.1873268336   -1.8069512887
H        -0.3896980921    2.3362135814   -0.2641392419
H        -0.1227140041    0.6834259217   -2.5347929614
O         0.9082155389   -1.0780562367    0.1444002159
H         1.3726212145   -0.5896830547   -0.5468709416
O        -1.8105423956   -0.0308362828    2.1431294205
O        -1.9978556240    0.8555253344    1.0061680980
O        -0.7679525079   -3.5143030859    0.9573831043
$end

$rem
BASIS = 6-311++G(2df,2p)
GUI = 2
JOB_TYPE = Frequency
METHOD = wB97M-V
SOLVENT_METHOD = SMD
SCF_ALGORITHM = DIIS_GDM
MAX_SCF_CYCLES = 400
SCF_CONVERGENCE = 7
THRESH = 12
$end

--------------------------------------------------------------

   20    -648.1021864693      6.45e-08  Convergence criterion met
 Total energy in the final basis set =     -648.0949156281
   19    -648.1021890115      5.92e-08  Convergence criterion met
 Total energy in the final basis set =     -648.0949146028
   19    -648.1021820000      5.89e-08  Convergence criterion met
 Total energy in the final basis set =     -648.0949146001
   19    -648.1021819647      5.89e-08  Convergence criterion met
 Total energy in the final basis set =     -648.0949146188
   19    -648.1021890830      5.90e-08  Convergence criterion met
 Total energy in the final basis set =     -648.0949146165
   19    -648.1021829347      5.92e-08  Convergence criterion met
 Total energy in the final basis set =     -648.0949147385
   19    -648.1021882719      5.90e-08  Convergence criterion met
 Total energy in the final basis set =     -648.0949147232
   19    -648.1021802506      5.93e-08  Convergence criterion met
 Frequency:      -115.78                  74.07                  82.66
 Force Cnst:      0.0610                 0.0174                 0.0163
 Red. Mass:       7.7196                 5.3771                 4.0531
 IR Intens:       31.431                 14.372                  9.884
 Frequency:       140.14                 166.51                 207.67
 Force Cnst:      0.0628                 0.0921                 0.1958
 Red. Mass:       5.4273                 5.6376                 7.7062
 IR Intens:       32.896                 10.516                  8.926
 Frequency:       237.86                 274.85                 295.98
 Force Cnst:      0.0619                 0.1523                 0.0968
 Red. Mass:       1.8566                 3.4217                 1.8748
 IR Intens:       75.061                 67.888                178.024
 Frequency:       315.72                 325.29                 348.06
 Force Cnst:      0.0905                 0.3251                 0.1428
 Red. Mass:       1.5404                 5.2148                 2.0008
 IR Intens:      167.697                 60.958                 45.840
 Frequency:       393.28                 424.11                 452.07
 Force Cnst:      0.4732                 0.4020                 0.3754
 Red. Mass:       5.1924                 3.7929                 3.1174
 IR Intens:        5.393                 18.183                 25.685
 Frequency:       547.84                 587.46                 637.44
 Force Cnst:      0.7795                 0.8170                 1.1185
 Red. Mass:       4.4082                 4.0178                 4.6722
 IR Intens:        5.606                 15.342                 10.619
 Frequency:       696.22                 725.63                 754.78
 Force Cnst:      1.0927                 0.8264                 0.5908
 Red. Mass:       3.8261                 2.6639                 1.7602
 IR Intens:       34.439                 23.588                  9.353
 Frequency:       808.08                 852.48                 877.52
 Force Cnst:      1.1940                 1.0239                 2.9741
 Red. Mass:       3.1034                 2.3913                 6.5552
 IR Intens:       30.077                 20.442                 59.774
 Frequency:       932.89                 975.57                 998.72
 Force Cnst:      0.8878                 0.8584                 1.6823
 Red. Mass:       1.7315                 1.5309                 2.8626
 IR Intens:       29.597                 21.939                 92.117
 Frequency:      1020.78                1029.57                1049.25
 Force Cnst:      0.8984                 1.4749                 1.8290
 Red. Mass:       1.4634                 2.3616                 2.8197
 IR Intens:       31.204                 74.932                 81.978
 Frequency:      1092.48                1121.99                1148.23
 Force Cnst:      3.7523                 1.7979                 1.3445
 Red. Mass:       5.3361                 2.4241                 1.7308
 IR Intens:      112.679                190.969                 33.993
 Frequency:      1186.55                1215.52                1237.14
 Force Cnst:      1.4622                 0.9620                 1.2753
 Red. Mass:       1.7628                 1.1050                 1.4143
 IR Intens:       30.192                  5.570                 32.766
 Frequency:      1264.63                1308.44                1325.27
 Force Cnst:      2.7894                 2.0205                 1.5070
 Red. Mass:       2.9603                 2.0031                 1.4563
 IR Intens:      163.429                 41.841                  1.845
 Frequency:      1342.73                1370.56                1387.05
 Force Cnst:      2.2984                 1.4137                 1.4210
 Red. Mass:       2.1637                 1.2773                 1.2536
 IR Intens:       99.168                 44.523                 17.715
 Frequency:      1407.18                1419.14                1456.74
 Force Cnst:      1.5053                 2.0040                 2.5334
 Red. Mass:       1.2902                 1.6889                 2.0263
 IR Intens:       29.107                 17.304                 77.617
 Frequency:      1489.61                1563.23                1732.60
 Force Cnst:      1.4194                 9.5506                14.4875
 Red. Mass:       1.0857                 6.6334                 8.1912
 IR Intens:        5.244                630.461                  2.815
 Frequency:      3006.47                3007.34                3074.22
 Force Cnst:      5.7618                 5.7748                 5.9111
 Red. Mass:       1.0819                 1.0837                 1.0616
 IR Intens:       34.387                 67.549                 49.506
 Frequency:      3141.25                3149.74                3174.47
 Force Cnst:      6.4291                 6.3434                 6.5028
 Red. Mass:       1.1058                 1.0852                 1.0952
 IR Intens:       23.571                  6.602                  7.071
 Frequency:      3224.90                3796.82                3822.90
 Force Cnst:      6.6983                 9.0592                 9.1858
 Red. Mass:       1.0932                 1.0666                 1.0668
 IR Intens:       10.240                197.993                124.845

 STANDARD THERMODYNAMIC QUANTITIES AT   298.15 K  AND     1.00 ATM

   This Molecule has  1 Imaginary Frequencies
   Zero point vibrational energy:       99.641 kcal/mol

   Atom    1 Element C  Has Mass   12.00000
   Atom    2 Element C  Has Mass   12.00000
   Atom    3 Element C  Has Mass   12.00000
   Atom    4 Element C  Has Mass   12.00000
   Atom    5 Element C  Has Mass   12.00000
   Atom    6 Element C  Has Mass   12.00000
   Atom    7 Element C  Has Mass   12.00000
   Atom    8 Element H  Has Mass    1.00783
   Atom    9 Element H  Has Mass    1.00783
   Atom   10 Element H  Has Mass    1.00783
   Atom   11 Element H  Has Mass    1.00783
   Atom   12 Element H  Has Mass    1.00783
   Atom   13 Element H  Has Mass    1.00783
   Atom   14 Element O  Has Mass   15.99491
   Atom   15 Element H  Has Mass    1.00783
   Atom   16 Element H  Has Mass    1.00783
   Atom   17 Element O  Has Mass   15.99491
   Atom   18 Element H  Has Mass    1.00783
   Atom   19 Element O  Has Mass   15.99491
   Atom   20 Element O  Has Mass   15.99491
   Atom   21 Element O  Has Mass   15.99491
   Molecular Mass:   173.045020 amu
   Principal axes and moments of inertia in amu*Bohr^2:
                             1           2           3
    Eigenvalues --     1242.71875  2119.47871  2398.37422
          X               0.17301    -0.50890     0.84326
          Y               0.86673     0.48533     0.11507
          Z              -0.46782     0.71097     0.52505
   Rotational Symmetry Number is   1
   The Molecule is an Asymmetric Top
   Translational Enthalpy:        0.889 kcal/mol
   Rotational Enthalpy:           0.889 kcal/mol
   Vibrational Enthalpy:        104.796 kcal/mol
   gas constant (RT):             0.592 kcal/mol
   Translational Entropy:        41.352  cal/mol.K
   Rotational Entropy:           30.225  cal/mol.K
   Vibrational Entropy:          30.320  cal/mol.K

   Total Enthalpy:              107.166 kcal/mol
   Total Entropy:               101.898  cal/mol.K
 Total job time:  47539.67s(wall), 621857.88s(cpu)
        *  Thank you very much for using Q-Chem.  Have a nice day.  *
 Q-Chem 5.4, Q-Chem, Inc., Pleasanton, CA (2021)
 Q-Chem 5.4.2 for Intel X86 EM64T Linux

User input:
--------------------------------------------------------------

$molecule
read
$end

$rem
JOBTYPE            rpath
SCF_GUESS          read
RPATH_MAX_CYCLES   30
BASIS = 6-311++G(2df,2p)
METHOD = wB97M-V
SOLVENT_METHOD = SMD
SCF_ALGORITHM = DIIS_GDM
SCF_CONVERGENCE = 7
THRESH = 12
$end
--------------------------------------------------------------

 Total energy in the final basis set =     -648.0949156288
   19    -648.1023162576      8.30e-08  Convergence criterion met
 Total energy in the final basis set =     -648.0949554695
   19    -648.0996993337      8.29e-08  Convergence criterion met
 Total energy in the final basis set =     -648.0926445314
   20    -648.1023133338      6.24e-08  Convergence criterion met
 Total energy in the final basis set =     -648.0949557835
   18    -648.1012052568      8.39e-08  Convergence criterion met
 Total energy in the final basis set =     -648.0938979296
   19    -648.1023132467      6.67e-08  Convergence criterion met
 Total energy in the final basis set =     -648.0949578184
   18    -648.1023181102      9.01e-08  Convergence criterion met
 Total energy in the final basis set =     -648.0949562409
   18    -648.1023161208      8.42e-08  Convergence criterion met
 Total energy in the final basis set =     -648.0949584491

                    Orbital Energies (a.u.)
 --------------------------------------------------------------

 Alpha MOs
 -- Occupied --
-19.4474 -19.4215 -19.3522 -19.3481 -19.3287 -10.4364 -10.4264 -10.4234
-10.4210 -10.3966 -10.3582 -10.3568  -1.3119  -1.1805  -1.1714  -1.1655
 -1.1020  -0.9580  -0.9019  -0.8447  -0.7861  -0.7592  -0.7266  -0.6941
 -0.6614  -0.6408  -0.6269  -0.6125  -0.5863  -0.5834  -0.5726  -0.5581
 -0.5490  -0.5355  -0.5296  -0.5167  -0.5018  -0.4810  -0.4672  -0.4482
 -0.4355  -0.3973  -0.3895  -0.3762  -0.3684  -0.2893

 Beta MOs
 -- Occupied --
-19.4424 -19.4217 -19.3521 -19.3481 -19.3235 -10.4369 -10.4232 -10.4212
-10.4167 -10.3966 -10.3581 -10.3566  -1.3060  -1.1797  -1.1659  -1.1629
 -1.0969  -0.9542  -0.8984  -0.8406  -0.7828  -0.7505  -0.7205  -0.6891
 -0.6560  -0.6385  -0.6241  -0.6060  -0.5828  -0.5778  -0.5664  -0.5465
 -0.5454  -0.5290  -0.5266  -0.5123  -0.4962  -0.4691  -0.4593  -0.4417
 -0.4282  -0.3960  -0.3855  -0.3736  -0.3632

          Ground-State Mulliken Net Atomic Charges

     Atom                 Charge (a.u.)    Spin (a.u.)
  --------------------------------------------------------
      1 C                    -0.028199       0.000215
      2 C                    -0.317347       0.617220
      3 C                    -0.247715       0.049381
      4 C                    -0.046071      -0.019233
      5 C                    -0.485940       0.011327
      6 C                     0.176868       0.017038
      7 C                    -0.405942      -0.008312
      8 H                     0.303054       0.031733
      9 H                     0.329331      -0.008549
     10 H                     0.231365       0.005426
     11 H                     0.290690       0.002068
     12 H                     0.313245       0.000075
     13 H                     0.258457      -0.000230
     14 O                    -0.371977       0.000706
     15 H                     0.247990       0.001093
     16 H                     0.329264      -0.000026
     17 O                    -0.379852       0.002752
     18 H                     0.344862      -0.000643
     19 O                    -0.002709       0.122813
     20 O                    -0.096578      -0.004493
     21 O                    -0.442796       0.179639
  --------------------------------------------------------
  Sum of atomic charges =     0.000000

                    Cartesian Multipole Moments
 -----------------------------------------------------------------
    Charge (ESU x 10^10)
                 0.0000
    Dipole Moment (Debye)
         X      -1.3421      Y       5.2710      Z      -2.7708
       Tot       6.1042
    Quadrupole Moments (Debye-Ang)
        XX     -69.5030     XY       4.1166     YY     -93.3343
        XZ       7.6580     YZ       3.5039     ZZ     -60.7265

             Standard Nuclear Orientation (Angstroms)
    I     Atom           X                Y                Z
 ----------------------------------------------------------------
    1      C       0.0470648511    -0.1715590294     0.7797293864
    2      C      -0.7269181770    -0.7936306875     1.8871075942
    3      C      -1.6054089047    -2.5986216382     0.9144941470
    4      C      -1.9994750183    -1.9919561799    -0.3959684827
    5      C      -1.8274212870    -0.7465885448    -0.8203541281
    6      C      -1.1453044417     0.3461795945    -0.0425297996
    7      C      -0.7783571972     1.5475240948    -0.9042265548
    8      H       0.5994917899     0.6939126225     1.1680353948
    9      H      -0.3254844076    -1.2763487472     2.7670324440
   10      H      -2.3266889492    -2.4827241455     1.7338591098
   11      H      -2.4880601741    -2.7070580136    -1.0516641277
   12      H      -2.1895058714    -0.4748558750    -1.8057745261
   13      H      -1.6552636536     1.9178647383    -1.4362539622
   14      O       0.2580650109     1.1873268336    -1.8069512887
   15      H      -0.3896980921     2.3362135814    -0.2641392419
   16      H      -0.1227140041     0.6834259217    -2.5347929614
   17      O       0.9082155389    -1.0780562367     0.1444002159
   18      H       1.3726212145    -0.5896830547    -0.5468709416
   19      O      -1.8105423956    -0.0308362828     2.1431294205
   20      O      -1.9978556240     0.8555253344     1.0061680980
   21      O      -0.7679525079    -3.5143030859     0.9573831043
 ----------------------------------------------------------------

 Total job time:  5457.74s(wall), 76781.33s(cpu)
        *  Thank you very much for using Q-Chem.  Have a nice day.  *
