 Q-Chem 5.4, Q-Chem, Inc., Pleasanton, CA (2021)
 Q-Chem 5.4.1 for Intel X86 EM64T Linux

User input:
--------------------------------------------------------------
$molecule
0 2
C        -0.2096474166   -0.4093343376    0.7373346453
C        -0.6107696956   -1.4691951699    1.5279415457
C        -1.8079649799   -2.1365992307    1.2765577983
C        -2.6102002338   -1.7248990279    0.2095586654
C        -2.2278778308   -0.6699976668   -0.5905767901
C        -1.0135554889    0.0195740749   -0.3478208818
C        -0.6475599053    1.0898533447   -1.1742652406
H         0.7210238156    0.0993818444    0.9457297132
H         0.0153497815   -1.7826548627    2.3531110336
H        -2.1132901039   -2.9643877186    1.9012020724
H        -3.5405983795   -2.2387674917    0.0065140250
H        -2.8543046015   -0.3561841665   -1.4160024933
H        -1.2522520896    1.4265980783   -2.0032843656
O         0.5192170176    1.7512765253   -0.9367425723
H         0.6227342107    2.4579298050   -1.5835110551
$end

$rem
BASIS = 6-311++G(2df,2p)
GUI = 2
JOB_TYPE = Frequency
METHOD = wB97M-V
SOLVENT_METHOD = SMD
SCF_ALGORITHM = DIIS_GDM
MAX_SCF_CYCLES = 400
SCF_CONVERGENCE = 7
THRESH = 12
UNRESTRICTED = 1
SYMMETRY_IGNORE = 1
$end
--------------------------------------------------------------

   19    -346.1218124407      6.49e-08  Convergence criterion met
 Total energy in the final basis set =     -346.1153502449
   15    -346.1218119272      8.64e-08  Convergence criterion met
 Total energy in the final basis set =     -346.1153491399
   16    -346.1218108988      9.26e-08  Convergence criterion met
 Total energy in the final basis set =     -346.1153492906
   15    -346.1218121191      9.22e-08  Convergence criterion met
 Total energy in the final basis set =     -346.1153494693
   16    -346.1218110651      7.15e-08  Convergence criterion met
 Total energy in the final basis set =     -346.1153493210
   15    -346.1218114254      8.44e-08  Convergence criterion met
 Total energy in the final basis set =     -346.1153492362
   16    -346.1218118662      8.03e-08  Convergence criterion met
 Total energy in the final basis set =     -346.1153496609
   16    -346.1218118630      8.09e-08  Convergence criterion met
 Total energy in the final basis set =     -346.1153495547
   15    -346.1218132584      7.84e-08  Convergence criterion met
 Total energy in the final basis set =     -346.1153497810
   15    -346.1218129132      9.17e-08  Convergence criterion met
 Total energy in the final basis set =     -346.1153502012
   15    -346.1218117907      7.91e-08  Convergence criterion met
 Total energy in the final basis set =     -346.1153501108
   15    -346.1218125980      7.47e-08  Convergence criterion met
 Total energy in the final basis set =     -346.1153497378
   15    -346.1218112396      7.65e-08  Convergence criterion met
 Total energy in the final basis set =     -346.1153497081
   15    -346.1218117323      7.53e-08  Convergence criterion met
 Total energy in the final basis set =     -346.1153498151
   15    -346.1218122760      7.83e-08  Convergence criterion met
 Total energy in the final basis set =     -346.1153498013

                    Orbital Energies (a.u.)
 --------------------------------------------------------------

 Alpha MOs
 -- Occupied --
-19.3708 -10.3981 -10.3523 -10.3424 -10.3407 -10.3402 -10.3398 -10.3376
 -1.1960  -0.9851  -0.8966  -0.8691  -0.7921  -0.7231  -0.6958  -0.6462
 -0.6282  -0.5716  -0.5470  -0.5320  -0.5319  -0.5195  -0.4795  -0.4774
 -0.4481  -0.4296  -0.3748  -0.3540  -0.2403

 Beta MOs
 -- Occupied --
-19.3673 -10.3887 -10.3546 -10.3420 -10.3413 -10.3394 -10.3373 -10.3343
 -1.1876  -0.9823  -0.8903  -0.8665  -0.7779  -0.7208  -0.6918  -0.6391
 -0.6245  -0.5669  -0.5448  -0.5297  -0.5182  -0.5062  -0.4724  -0.4652
 -0.4450  -0.4283  -0.3478  -0.3429

          Ground-State Mulliken Net Atomic Charges

     Atom                 Charge (a.u.)    Spin (a.u.)
  --------------------------------------------------------
      1 C                    -0.027197       0.206426
      2 C                    -0.345815      -0.103392
      3 C                    -0.378453       0.233452
      4 C                    -0.396774      -0.091712
      5 C                    -0.718028       0.208863
      6 C                     0.599893      -0.132129
      7 C                    -0.371851       0.619336
      8 H                     0.271017      -0.005307
      9 H                     0.280443       0.002611
     10 H                     0.276740      -0.005414
     11 H                     0.280424       0.002377
     12 H                     0.260666      -0.004466
     13 H                     0.276014      -0.015649
     14 O                    -0.351483       0.087296
     15 H                     0.344404      -0.002294
  --------------------------------------------------------
  Sum of atomic charges =    -0.000000

                    Cartesian Multipole Moments
 -----------------------------------------------------------------
    Charge (ESU x 10^10)
                -0.0000
    Dipole Moment (Debye)
         X      -0.3821      Y       1.9923      Z      -2.3614
       Tot       3.1131
    Quadrupole Moments (Debye-Ang)
        XX     -45.5866     XY       2.1796     YY     -41.3425
        XZ       3.5312     YZ      -9.5690     ZZ     -41.4858

             Standard Nuclear Orientation (Angstroms)
    I     Atom           X                Y                Z
 ----------------------------------------------------------------
    1      C      -0.2096474166    -0.4093343376     0.7373346453
    2      C      -0.6107696956    -1.4691951699     1.5279415457
    3      C      -1.8079649799    -2.1365992307     1.2765577983
    4      C      -2.6102002338    -1.7248990279     0.2095586654
    5      C      -2.2278778308    -0.6699976668    -0.5905767901
    6      C      -1.0135554889     0.0195740749    -0.3478208818
    7      C      -0.6475599053     1.0898533447    -1.1742652406
    8      H       0.7210238156     0.0993818444     0.9457297132
    9      H       0.0153497815    -1.7826548627     2.3531110336
   10      H      -2.1132901039    -2.9643877186     1.9012020724
   11      H      -3.5405983795    -2.2387674917     0.0065140250
   12      H      -2.8543046015    -0.3561841665    -1.4160024933
   13      H      -1.2522520896     1.4265980783    -2.0032843656
   14      O       0.5192170176     1.7512765253    -0.9367425723
   15      H       0.6227342107     2.4579298050    -1.5835110551
 ----------------------------------------------------------------

 Frequency:       137.80                 215.00                 240.23
 Force Cnst:      0.0570                 0.1243                 0.0925
 Red. Mass:       5.0923                 4.5629                 2.7218
 IR Intens:        0.068                  5.460                 53.563
 Frequency:       373.86                 416.20                 438.18
 Force Cnst:      0.1001                 0.2992                 0.7140
 Red. Mass:       1.2159                 2.9319                 6.3115
 IR Intens:      203.431                  3.465                  6.680
 Frequency:       489.32                 601.89                 621.67
 Force Cnst:      0.2983                 1.1577                 1.4652
 Red. Mass:       2.1145                 5.4239                 6.4348
 IR Intens:        6.441                 24.140                  0.487
 Frequency:       637.09                 697.22                 770.82
 Force Cnst:      0.3503                 0.4686                 0.7021
 Red. Mass:       1.4650                 1.6362                 2.0056
 IR Intens:       12.541                 73.454                113.031
 Frequency:       829.82                 844.26                 909.12
 Force Cnst:      1.6280                 0.5304                 0.6954
 Red. Mass:       4.0126                 1.2631                 1.4281
 IR Intens:        2.149                  0.144                  8.825
 Frequency:       987.79                1006.46                1017.28
 Force Cnst:      3.0759                 0.8091                 0.7946
 Red. Mass:       5.3506                 1.3556                 1.3032
 IR Intens:       35.761                  0.100                  0.039
 Frequency:      1041.23                1096.59                1126.45
 Force Cnst:      1.4143                 1.2799                 2.0638
 Red. Mass:       2.2141                 1.8065                 2.7605
 IR Intens:       42.356                121.802                239.553
 Frequency:      1150.78                1177.60                1217.36
 Force Cnst:      0.9032                 1.0286                 1.0397
 Red. Mass:       1.1576                 1.2589                 1.1907
 IR Intens:        1.975                 46.927                159.578
 Frequency:      1271.83                1318.09                1346.67
 Force Cnst:      1.8448                 3.8175                 1.4394
 Red. Mass:       1.9358                 3.7294                 1.3472
 IR Intens:      162.500                 18.684                  6.062
 Frequency:      1470.01                1488.92                1532.69
 Force Cnst:      2.7399                 2.6211                 3.8100
 Red. Mass:       2.1520                 2.0068                 2.7527
 IR Intens:       21.787                 64.729                  7.306
 Frequency:      1600.84                1622.14                3181.29
 Force Cnst:      7.4624                 8.2410                 6.4779
 Red. Mass:       4.9423                 5.3156                 1.0864
 IR Intens:       11.988                 31.959                 10.620
 Frequency:      3187.06                3196.59                3208.20
 Force Cnst:      6.5097                 6.5814                 6.6279
 Red. Mass:       1.0877                 1.0932                 1.0930
 IR Intens:        2.719                 28.939                 28.417
 Frequency:      3214.24                3221.26                3830.84
 Force Cnst:      6.6777                 6.6656                 9.2234
 Red. Mass:       1.0970                 1.0903                 1.0667
 IR Intens:       12.615                 13.287                377.853

 STANDARD THERMODYNAMIC QUANTITIES AT   298.15 K  AND     1.00 ATM

   This Molecule has  0 Imaginary Frequencies
   Zero point vibrational energy:       75.388 kcal/mol

   Atom    1 Element C  Has Mass   12.00000
   Atom    2 Element C  Has Mass   12.00000
   Atom    3 Element C  Has Mass   12.00000
   Atom    4 Element C  Has Mass   12.00000
   Atom    5 Element C  Has Mass   12.00000
   Atom    6 Element C  Has Mass   12.00000
   Atom    7 Element C  Has Mass   12.00000
   Atom    8 Element H  Has Mass    1.00783
   Atom    9 Element H  Has Mass    1.00783
   Atom   10 Element H  Has Mass    1.00783
   Atom   11 Element H  Has Mass    1.00783
   Atom   12 Element H  Has Mass    1.00783
   Atom   13 Element H  Has Mass    1.00783
   Atom   14 Element O  Has Mass   15.99491
   Atom   15 Element H  Has Mass    1.00783
   Molecular Mass:   107.049720 amu
   Principal axes and moments of inertia in amu*Bohr^2:
                             1           2           3
    Eigenvalues --      350.26257  1186.31492  1536.57663
          X               0.44939     0.75270    -0.48114
          Y               0.77199    -0.05619     0.63315
          Z              -0.44953     0.65596     0.60633
   Rotational Symmetry Number is   1
   The Molecule is an Asymmetric Top
   Translational Enthalpy:        0.889 kcal/mol
   Rotational Enthalpy:           0.889 kcal/mol
   Vibrational Enthalpy:         77.881 kcal/mol
   gas constant (RT):             0.592 kcal/mol
   Translational Entropy:        39.921  cal/mol.K
   Rotational Entropy:           27.948  cal/mol.K
   Vibrational Entropy:          13.146  cal/mol.K

   Total Enthalpy:               80.251 kcal/mol
   Total Entropy:                81.015  cal/mol.K
 Total job time:  17368.05s(wall), 132170.33s(cpu)
        *  Thank you very much for using Q-Chem.  Have a nice day.  *
