 Q-Chem 5.4, Q-Chem, Inc., Pleasanton, CA (2021)
 Q-Chem 5.4.1 for Intel X86 EM64T Linux

User input:
--------------------------------------------------------------
$molecule
0 2
C        -0.2081886940   -0.4080937011    0.7376191541
C        -0.6088026991   -1.4714580175    1.5318248077
C        -1.8102203612   -2.1424869145    1.2809874238
C        -2.6154536209   -1.7302630032    0.2109663426
C        -2.2327779443   -0.6710977504   -0.5933255762
C        -1.0149495902    0.0219017842   -0.3511892680
C        -0.6434875686    1.0968409625   -1.1779256558
H         0.7264594633    0.1044246445    0.9442897253
H         0.0214692046   -1.7848145344    2.3602660183
H        -2.1158214212   -2.9741551396    1.9086915901
H        -3.5502401424   -2.2463286953    0.0076812907
H        -2.8624425332   -0.3569237553   -1.4224328551
H        -1.2487034110    1.4365560304   -2.0112491368
O         0.5272007716    1.7545347041   -0.9328120003
H         0.6262626467    2.4639573858   -1.5876457604
$end

$rem
BASIS = 6-311++G(2df,2p)
GUI = 2
JOB_TYPE = Optimization
METHOD = wB97M-V
SCF_ALGORITHM = DIIS_GDM
MAX_SCF_CYCLES = 400
GEOM_OPT_MAX_CYCLES = 150
SCF_CONVERGENCE = 7
THRESH = 12
Solvent_method = SMD
$end
--------------------------------------------------------------

   19    -346.1215434277      6.95e-08  Convergence criterion met
 Total energy in the final basis set =     -346.1150511987
   20    -346.1217975732      7.08e-08  Convergence criterion met
 Total energy in the final basis set =     -346.1153459470

             Standard Nuclear Orientation (Angstroms)
    I     Atom           X                Y                Z
 ----------------------------------------------------------------
    1      C      -0.2096474166    -0.4093343376     0.7373346453
    2      C      -0.6107696956    -1.4691951699     1.5279415457
    3      C      -1.8079649799    -2.1365992307     1.2765577983
    4      C      -2.6102002338    -1.7248990279     0.2095586654
    5      C      -2.2278778308    -0.6699976668    -0.5905767901
    6      C      -1.0135554889     0.0195740749    -0.3478208818
    7      C      -0.6475599053     1.0898533447    -1.1742652406
    8      H       0.7210238156     0.0993818444     0.9457297132
    9      H       0.0153497815    -1.7826548627     2.3531110336
   10      H      -2.1132901039    -2.9643877186     1.9012020724
   11      H      -3.5405983795    -2.2387674917     0.0065140250
   12      H      -2.8543046015    -0.3561841665    -1.4160024933
   13      H      -1.2522520896     1.4265980783    -2.0032843656
   14      O       0.5192170176     1.7512765253    -0.9367425723
   15      H       0.6227342107     2.4579298050    -1.5835110551
 ----------------------------------------------------------------

   16    -346.1218124406      6.59e-08  Convergence criterion met
 Total energy in the final basis set =     -346.1153502448
 Final energy is   -346.115350244820
 **  OPTIMIZATION CONVERGED  **

                    Orbital Energies (a.u.)
 --------------------------------------------------------------

 Alpha MOs
 -- Occupied --
-19.3708 -10.3981 -10.3523 -10.3424 -10.3407 -10.3402 -10.3398 -10.3376
 -1.1962  -0.9851  -0.8966  -0.8691  -0.7922  -0.7231  -0.6959  -0.6463
 -0.6282  -0.5717  -0.5470  -0.5320  -0.5319  -0.5195  -0.4795  -0.4774
 -0.4481  -0.4296  -0.3748  -0.3540  -0.2403

 Beta MOs
 -- Occupied --
-19.3672 -10.3887 -10.3546 -10.3420 -10.3413 -10.3394 -10.3373 -10.3343
 -1.1877  -0.9823  -0.8903  -0.8665  -0.7779  -0.7209  -0.6918  -0.6391
 -0.6245  -0.5669  -0.5448  -0.5297  -0.5182  -0.5062  -0.4724  -0.4652
 -0.4450  -0.4283  -0.3478  -0.3429

          Ground-State Mulliken Net Atomic Charges

     Atom                 Charge (a.u.)    Spin (a.u.)
  --------------------------------------------------------
      1 C                    -0.027283       0.206431
      2 C                    -0.345779      -0.103396
      3 C                    -0.378432       0.233453
      4 C                    -0.396794      -0.091714
      5 C                    -0.717953       0.208865
      6 C                     0.599810      -0.132130
      7 C                    -0.371749       0.619364
      8 H                     0.271011      -0.005307
      9 H                     0.280446       0.002611
     10 H                     0.276739      -0.005414
     11 H                     0.280425       0.002377
     12 H                     0.260665      -0.004467
     13 H                     0.276055      -0.015649
     14 O                    -0.351371       0.087263
     15 H                     0.344211      -0.002286
  --------------------------------------------------------
  Sum of atomic charges =    -0.000000

                    Cartesian Multipole Moments
 -----------------------------------------------------------------
    Charge (ESU x 10^10)
                -0.0000
    Dipole Moment (Debye)
         X      -0.3826      Y       1.9920      Z      -2.3594
       Tot       3.1115
    Quadrupole Moments (Debye-Ang)
        XX     -45.5854     XY       2.1797     YY     -41.3406
        XZ       3.5326     YZ      -9.5643     ZZ     -41.4916

 Total job time:  493.71s(wall), 3830.70s(cpu)
        *  Thank you very much for using Q-Chem.  Have a nice day.  *
