 Q-Chem 5.4, Q-Chem, Inc., Pleasanton, CA (2021)
 Q-Chem 5.4.1 for Intel X86 EM64T Linux

User input:
--------------------------------------------------------------
$molecule
0 2
H         3.1711627128   -1.5681011383    0.9259192322
C         2.3163040038   -1.0192191611    0.5528821736
C         1.0845589564   -1.2021107681    1.1688172223
H         0.9805227254   -1.9045513691    1.9813108357
C         0.0001480820   -0.5163652375    0.6892742725
H        -0.9804752501   -0.6329238423    1.1289562506
C         0.1501363789    0.5353349957   -0.3271782886
C         0.1996431375    1.8931508519    0.5210247666
C         1.4443721374    0.5309714512   -1.0366130777
H         1.5298633483    1.1835538291   -1.8957550989
C         2.4979992486   -0.1713574588   -0.5664080986
H         3.4648451033   -0.1193252167   -1.0434362181
O        -0.9927926332    2.0737104114    1.2382346609
H         0.3544572491    2.6892077198   -0.2064963550
O        -0.9711997624    0.6485583694   -1.1682827165
H        -1.2053551115   -0.2895192404   -1.3565514210
H         1.0269764463    1.8554533975    1.2234251908
H        -1.7030545289    2.2411951207    0.6077979320
O        -1.0338575222   -2.0213154457   -1.1170302389
O        -2.2073009045   -2.3619213604   -0.6233517258
$end

$rem
BASIS = 6-311++G(2df,2p)
GUI = 2
JOB_TYPE = Frequency
METHOD = wB97M-V
SOLVENT_METHOD = SMD
SCF_ALGORITHM = DIIS_GDM
MAX_SCF_CYCLES = 400
SCF_CONVERGENCE = 7
THRESH = 12
UNRESTRICTED = 1
SYMMETRY_IGNORE = 1
$end
--------------------------------------------------------------

   30    -572.8546835421      7.29e-08  Convergence criterion met
 Total energy in the final basis set =     -572.8497891173
   29    -572.8546834247      5.17e-08  Convergence criterion met
 Total energy in the final basis set =     -572.8497886878
   29    -572.8546827791      5.20e-08  Convergence criterion met
 Total energy in the final basis set =     -572.8497886640
   29    -572.8546830807      5.17e-08  Convergence criterion met
 Total energy in the final basis set =     -572.8497888553
   29    -572.8546835795      5.15e-08  Convergence criterion met
 Total energy in the final basis set =     -572.8497889540
   29    -572.8546834711      5.15e-08  Convergence criterion met
 Total energy in the final basis set =     -572.8497889098
   29    -572.8546833170      5.17e-08  Convergence criterion met
 Total energy in the final basis set =     -572.8497890270
   29    -572.8546831903      5.15e-08  Convergence criterion met
 Total energy in the final basis set =     -572.8497889573
   29    -572.8546833353      5.20e-08  Convergence criterion met
 Total energy in the final basis set =     -572.8497890498
   29    -572.8546829128      5.45e-08  Convergence criterion met
 Total energy in the final basis set =     -572.8497884692
   29    -572.8546828045      5.41e-08  Convergence criterion met
 Total energy in the final basis set =     -572.8497883985
   29    -572.8546833378      5.13e-08  Convergence criterion met
 Total energy in the final basis set =     -572.8497891035
   29    -572.8546836067      5.36e-08  Convergence criterion met
 Total energy in the final basis set =     -572.8497889916
   29    -572.8546834322      5.34e-08  Convergence criterion met
 Total energy in the final basis set =     -572.8497890178
   29    -572.8546834057      5.22e-08  Convergence criterion met
 Total energy in the final basis set =     -572.8497889705

                    Orbital Energies (a.u.)
 --------------------------------------------------------------

 Alpha MOs
 -- Occupied --
-19.3602 -19.3547 -19.3528 -19.3459 -10.4351 -10.4185 -10.4144 -10.4120
-10.3958 -10.3722 -10.3703  -1.2405  -1.1890  -1.1643  -1.0184  -0.9165
 -0.9085  -0.8822  -0.8147  -0.7579  -0.7430  -0.6781  -0.6464  -0.6269
 -0.6098  -0.5847  -0.5786  -0.5629  -0.5509  -0.5395  -0.5374  -0.5239
 -0.5004  -0.4858  -0.4734  -0.4673  -0.4586  -0.4177  -0.3933  -0.3813
 -0.3361  -0.3078

 Beta MOs
 -- Occupied --
-19.3528 -19.3466 -19.3458 -19.3393 -10.4351 -10.4185 -10.4145 -10.4122
-10.3957 -10.3721 -10.3702  -1.2120  -1.1885  -1.1641  -1.0184  -0.9162
 -0.9085  -0.8410  -0.8139  -0.7579  -0.7429  -0.6776  -0.6463  -0.6264
 -0.6095  -0.5837  -0.5776  -0.5620  -0.5465  -0.5225  -0.5151  -0.4919
 -0.4864  -0.4770  -0.4670  -0.4580  -0.4535  -0.4166  -0.3925  -0.3776
 -0.2874

          Ground-State Mulliken Net Atomic Charges

     Atom                 Charge (a.u.)    Spin (a.u.)
  --------------------------------------------------------
      1 H                     0.306687      -0.000193
      2 C                    -0.070975      -0.005857
      3 C                    -0.499711       0.009590
      4 H                     0.303164       0.000919
      5 C                     0.034231      -0.000111
      6 H                     0.382379      -0.000004
      7 C                     0.338109      -0.013782
      8 C                    -0.606365       0.001528
      9 C                     0.026406       0.000051
     10 H                     0.351746       0.000076
     11 C                    -0.491097       0.006700
     12 H                     0.296350       0.000106
     13 O                    -0.375070       0.000073
     14 H                     0.253284       0.000076
     15 O                    -0.400546       0.001347
     16 H                     0.316257      -0.000189
     17 H                     0.259892       0.000007
     18 H                     0.351118      -0.000032
     19 O                    -0.336247       0.458997
     20 O                    -0.439611       0.540702
  --------------------------------------------------------
  Sum of atomic charges =    -0.000000

                    Cartesian Multipole Moments
 -----------------------------------------------------------------
    Charge (ESU x 10^10)
                -0.0000
    Dipole Moment (Debye)
         X      12.4856      Y       6.8213      Z       3.2509
       Tot      14.5941
    Quadrupole Moments (Debye-Ang)
        XX     -58.4743     XY     -16.8612     YY     -78.3250
        XZ      -3.8745     YZ     -14.6187     ZZ     -66.6628

             Standard Nuclear Orientation (Angstroms)
    I     Atom           X                Y                Z
 ----------------------------------------------------------------
    1      H       3.1711627128    -1.5681011383     0.9259192322
    2      C       2.3163040038    -1.0192191611     0.5528821736
    3      C       1.0845589564    -1.2021107681     1.1688172223
    4      H       0.9805227254    -1.9045513691     1.9813108357
    5      C       0.0001480820    -0.5163652375     0.6892742725
    6      H      -0.9804752501    -0.6329238423     1.1289562506
    7      C       0.1501363789     0.5353349957    -0.3271782886
    8      C       0.1996431375     1.8931508519     0.5210247666
    9      C       1.4443721374     0.5309714512    -1.0366130777
   10      H       1.5298633483     1.1835538291    -1.8957550989
   11      C       2.4979992486    -0.1713574588    -0.5664080986
   12      H       3.4648451033    -0.1193252167    -1.0434362181
   13      O      -0.9927926332     2.0737104114     1.2382346609
   14      H       0.3544572491     2.6892077198    -0.2064963550
   15      O      -0.9711997624     0.6485583694    -1.1682827165
   16      H      -1.2053551115    -0.2895192404    -1.3565514210
   17      H       1.0269764463     1.8554533975     1.2234251908
   18      H      -1.7030545289     2.2411951207     0.6077979320
   19      O      -1.0338575222    -2.0213154457    -1.1170302389
   20      O      -2.2073009045    -2.3619213604    -0.6233517258
 ----------------------------------------------------------------

 Frequency:      -152.28                  38.01                  60.65
 Force Cnst:      0.1163                 0.0069                 0.0219
 Red. Mass:       8.5136                 8.0511                10.0839
 IR Intens:      200.628                  5.507                  2.834
 Frequency:       103.55                 116.32                 153.69
 Force Cnst:      0.0297                 0.0811                 0.0437
 Red. Mass:       4.7086                10.1692                 3.1416
 IR Intens:       18.239                 10.700                  0.820
 Frequency:       185.41                 232.61                 273.08
 Force Cnst:      0.0952                 0.0881                 0.0911
 Red. Mass:       4.7009                 2.7627                 2.0729
 IR Intens:       12.162                134.393                 42.319
 Frequency:       320.50                 341.60                 394.24
 Force Cnst:      0.2366                 0.1467                 0.2441
 Red. Mass:       3.9100                 2.1339                 2.6659
 IR Intens:       69.278                153.228                 16.793
 Frequency:       419.35                 445.03                 563.36
 Force Cnst:      0.3779                 0.5130                 0.6299
 Red. Mass:       3.6476                 4.3962                 3.3688
 IR Intens:        9.900                  8.994                 43.574
 Frequency:       581.78                 605.75                 706.88
 Force Cnst:      1.0485                 0.6508                 0.5016
 Red. Mass:       5.2580                 3.0102                 1.7036
 IR Intens:       19.218                  6.287                396.539
 Frequency:       736.27                 773.46                 821.62
 Force Cnst:      0.4143                 1.3450                 0.7547
 Red. Mass:       1.2972                 3.8158                 1.8976
 IR Intens:      171.213                 52.128                 99.433
 Frequency:       847.96                 969.26                 979.17
 Force Cnst:      0.5734                 0.9343                 1.9102
 Red. Mass:       1.3535                 1.6879                 3.3815
 IR Intens:       12.180                 60.908                 37.419
 Frequency:      1020.66                1030.81                1053.26
 Force Cnst:      1.4932                 0.8960                 0.9080
 Red. Mass:       2.4329                 1.4312                 1.3892
 IR Intens:        6.834                 34.554                 24.353
 Frequency:      1074.76                1105.66                1177.03
 Force Cnst:      1.0116                 1.0703                 0.9392
 Red. Mass:       1.4865                 1.4859                 1.1507
 IR Intens:        4.953                 21.692                129.711
 Frequency:      1181.42                1194.32                1256.10
 Force Cnst:      0.9617                 1.1065                 2.8562
 Red. Mass:       1.1695                 1.3166                 3.0724
 IR Intens:       47.344                168.489                118.075
 Frequency:      1261.30                1276.55                1328.94
 Force Cnst:      8.2516                 1.7493                 3.1034
 Red. Mass:       8.8035                 1.8219                 2.9825
 IR Intens:      155.181                 36.217                185.727
 Frequency:      1362.01                1368.04                1402.14
 Force Cnst:      1.4608                 1.5305                 1.4241
 Red. Mass:       1.3366                 1.3880                 1.2294
 IR Intens:      126.926                 44.488                 52.101
 Frequency:      1437.73                1458.70                1481.27
 Force Cnst:      2.3543                 3.5106                 2.5380
 Red. Mass:       1.9331                 2.8002                 1.9632
 IR Intens:      117.728                634.037                189.670
 Frequency:      1484.42                1582.89                1667.48
 Force Cnst:      1.5733                 5.1026                 9.7663
 Red. Mass:       1.2118                 3.4565                 5.9615
 IR Intens:       55.662                  7.525                187.984
 Frequency:      3085.09                3169.60                3208.83
 Force Cnst:      5.9526                 6.5581                 6.6152
 Red. Mass:       1.0615                 1.1079                 1.0904
 IR Intens:       28.460                  8.320                  0.751
 Frequency:      3213.79                3227.01                3235.66
 Force Cnst:      6.6406                 6.6920                 6.7678
 Red. Mass:       1.0912                 1.0907                 1.0972
 IR Intens:        0.558                  0.864                  0.857
 Frequency:      3240.56                3342.46                3816.31
 Force Cnst:      6.7989                 7.0306                 9.1510
 Red. Mass:       1.0989                 1.0681                 1.0664
 IR Intens:        0.209                489.219                164.296

 STANDARD THERMODYNAMIC QUANTITIES AT   298.15 K  AND     1.00 ATM

   This Molecule has  1 Imaginary Frequencies
   Zero point vibrational energy:       96.374 kcal/mol

   Atom    1 Element H  Has Mass    1.00783
   Atom    2 Element C  Has Mass   12.00000
   Atom    3 Element C  Has Mass   12.00000
   Atom    4 Element H  Has Mass    1.00783
   Atom    5 Element C  Has Mass   12.00000
   Atom    6 Element H  Has Mass    1.00783
   Atom    7 Element C  Has Mass   12.00000
   Atom    8 Element C  Has Mass   12.00000
   Atom    9 Element C  Has Mass   12.00000
   Atom   10 Element H  Has Mass    1.00783
   Atom   11 Element C  Has Mass   12.00000
   Atom   12 Element H  Has Mass    1.00783
   Atom   13 Element O  Has Mass   15.99491
   Atom   14 Element H  Has Mass    1.00783
   Atom   15 Element O  Has Mass   15.99491
   Atom   16 Element H  Has Mass    1.00783
   Atom   17 Element H  Has Mass    1.00783
   Atom   18 Element H  Has Mass    1.00783
   Atom   19 Element O  Has Mass   15.99491
   Atom   20 Element O  Has Mass   15.99491
   Molecular Mass:   157.050110 amu
   Principal axes and moments of inertia in amu*Bohr^2:
                             1           2           3
    Eigenvalues --     1478.94394  1795.31388  2457.65279
          X               0.65727     0.74461    -0.11643
          Y               0.70949    -0.66343    -0.23765
          Z               0.25420    -0.07359     0.96435
   Rotational Symmetry Number is   1
   The Molecule is an Asymmetric Top
   Translational Enthalpy:        0.889 kcal/mol
   Rotational Enthalpy:           0.889 kcal/mol
   Vibrational Enthalpy:        101.556 kcal/mol
   gas constant (RT):             0.592 kcal/mol
   Translational Entropy:        41.063  cal/mol.K
   Rotational Entropy:           30.257  cal/mol.K
   Vibrational Entropy:          33.436  cal/mol.K

   Total Enthalpy:              103.926 kcal/mol
   Total Entropy:               104.756  cal/mol.K
 Total job time:  62740.16s(wall), 488805.06s(cpu)
        *  Thank you very much for using Q-Chem.  Have a nice day.  *
