 Q-Chem 5.4, Q-Chem, Inc., Pleasanton, CA (2021)
 Q-Chem 5.4.1 for Intel X86 EM64T Linux

User input:
--------------------------------------------------------------
$molecule
0 2
H    3.5391428   -1.7421113    0.5942510
C    2.6866891   -1.1188581    0.3672128
C    1.4249692   -1.4059154    0.9368798
H    1.3271690   -2.2567805    1.5986874
C    0.3381777   -0.6408123    0.6660319
H   -0.6244594   -0.8687746    1.1041310
C    0.3974867    0.5472155   -0.2434058
C   -0.0621804    1.8245237    0.4715519
C    1.7617092    0.7678162   -0.8175680
H    1.8645486    1.6013802   -1.5014941
C    2.8207097   -0.0245493   -0.5172491
H    3.7843842    0.1764818   -0.9671306
O   -1.3788945    1.7085005    0.9891637
H    0.0032242    2.6540413   -0.2383335
O   -0.5706787    0.3946652   -1.3159823
H   -0.4264316   -0.4681633   -1.7224482
H    0.5978269    2.0299872    1.3115470
H   -1.9519582    1.4352357    0.2630051
O   -2.9318666   -1.6597280   -0.4723355
O   -3.3298235   -0.7794021    0.2339871
****
H    3.3794461   -1.2559457   -0.1515855
C    2.4381166   -0.7506514    0.0134443
C    1.2911293   -1.4210742    0.0201050
H    1.2330015   -2.4898796   -0.1357708
C    0.0248916   -0.6913542    0.3427229
H   -0.1360924   -0.6837676    1.4241632
C   -0.0123753    0.7524158   -0.1740775
C   -1.1549554    1.5615797    0.4413104
C    1.3078636    1.4043023    0.1675357
H    1.3083024    2.4820165    0.2733871
C    2.4360185    0.7003829    0.2309673
H    3.3793251    1.1986468    0.4102493
O   -2.4231812    1.2006328   -0.0917033
H   -1.0024895    2.6081409    0.1811831
O   -0.1373409    0.7793740   -1.5977328
H   -1.0790289    0.6909084   -1.8022077
H   -1.1380140    1.4649950    1.5278960
H   -2.7201634    0.3840922    0.3237931
O   -1.1154948   -1.3976647   -0.2336797
O   -1.3384032   -2.5250037    0.3785744
$end

$rem
BASIS = 6-311++G(2df,2p)
GUI = 2
JOB_TYPE = FSM
FSM_MODE = 2
METHOD = wB97M-v
MAX_SCF_CYCLES = 120
FSM_NGRAD = 6
FSM_NNODE = 20
SCF_CONVERGENCE = 7
THRESH = 12
SCF_ALGORITHM = DIIS_GDM
solvent_method = SMD
$end

--------------------------------------------------------------

   43    -572.8560120645      6.28e-08  Convergence criterion met
 Total energy in the final basis set =     -572.8506981519
   23    -572.8972367766      9.99e-08  Convergence criterion met
 Total energy in the final basis set =     -572.8922463731
   31    -572.8751648777      7.29e-08  Convergence criterion met
 Total energy in the final basis set =     -572.8698704468
   54    -572.8469358484      3.16e-08  Convergence criterion met
 Total energy in the final basis set =     -572.8416115034
   38    -572.8348099596      6.24e-08  Convergence criterion met
 Total energy in the final basis set =     -572.8295074449
   24    -572.8930286339      3.83e-08  Convergence criterion met
 Total energy in the final basis set =     -572.8880351291
   23    -572.8951718708      9.39e-08  Convergence criterion met
 Total energy in the final basis set =     -572.8901628222
   36    -572.8336210172      6.21e-08  Convergence criterion met
 Total job time:  45202.23s(wall), 350087.81s(cpu)
        *  Thank you very much for using Q-Chem.  Have a nice day.  *
 Q-Chem 5.4, Q-Chem, Inc., Pleasanton, CA (2021)
 Q-Chem 5.4.1 for Intel X86 EM64T Linux

User input:
--------------------------------------------------------------

$rem
JOBTYPE = ts
SCF_GUESS = read
GEOM_OPT_HESSIAN = read
MAX_SCF_CYCLES = 350
GEOM_OPT_DMAX = 60
GEOM_OPT_MAX_CYCLES = 250
METHOD = wB97M-v
BASIS = 6-311++G(2df,2p)
SCF_CONVERGENCE = 7
THRESH = 12
SCF_ALGORITHM = DIIS_GDM
solvent_method = SMD
$end

$molecule
read
$end
--------------------------------------------------------------

   28    -572.8546885622      9.40e-08  Convergence criterion met
 Total energy in the final basis set =     -572.8497805194
   29    -572.8546863910      4.09e-08  Convergence criterion met
 Total energy in the final basis set =     -572.8497816117
   29    -572.8546782875      5.52e-08  Convergence criterion met
 Total energy in the final basis set =     -572.8497812162
   28    -572.8546797309      8.22e-08  Convergence criterion met
 Total energy in the final basis set =     -572.8497814855
   29    -572.8546882888      3.74e-08  Convergence criterion met
 Total energy in the final basis set =     -572.8497869173
   29    -572.8546867448      8.41e-08  Convergence criterion met
 Total energy in the final basis set =     -572.8497881852

             Standard Nuclear Orientation (Angstroms)
    I     Atom           X                Y                Z
 ----------------------------------------------------------------
    1      H       3.1711627128    -1.5681011383     0.9259192322
    2      C       2.3163040038    -1.0192191611     0.5528821736
    3      C       1.0845589564    -1.2021107681     1.1688172223
    4      H       0.9805227254    -1.9045513691     1.9813108357
    5      C       0.0001480820    -0.5163652375     0.6892742725
    6      H      -0.9804752501    -0.6329238423     1.1289562506
    7      C       0.1501363789     0.5353349957    -0.3271782886
    8      C       0.1996431375     1.8931508519     0.5210247666
    9      C       1.4443721374     0.5309714512    -1.0366130777
   10      H       1.5298633483     1.1835538291    -1.8957550989
   11      C       2.4979992486    -0.1713574588    -0.5664080986
   12      H       3.4648451033    -0.1193252167    -1.0434362181
   13      O      -0.9927926332     2.0737104114     1.2382346609
   14      H       0.3544572491     2.6892077198    -0.2064963550
   15      O      -0.9711997624     0.6485583694    -1.1682827165
   16      H      -1.2053551115    -0.2895192404    -1.3565514210
   17      H       1.0269764463     1.8554533975     1.2234251908
   18      H      -1.7030545289     2.2411951207     0.6077979320
   19      O      -1.0338575222    -2.0213154457    -1.1170302389
   20      O      -2.2073009045    -2.3619213604    -0.6233517258
 ----------------------------------------------------------------

   29    -572.8546835423      5.30e-08  Convergence criterion met
 Total energy in the final basis set =     -572.8497891175
 Final energy is   -572.849789117504
 **  OPTIMIZATION CONVERGED  **

                    Orbital Energies (a.u.)
 --------------------------------------------------------------

 Alpha MOs
 -- Occupied --
-19.3602 -19.3547 -19.3528 -19.3459 -10.4351 -10.4185 -10.4145 -10.4120
-10.3958 -10.3722 -10.3703  -1.2403  -1.1890  -1.1643  -1.0184  -0.9165
 -0.9085  -0.8822  -0.8147  -0.7579  -0.7430  -0.6781  -0.6464  -0.6269
 -0.6098  -0.5847  -0.5786  -0.5629  -0.5508  -0.5394  -0.5373  -0.5238
 -0.5004  -0.4858  -0.4734  -0.4673  -0.4586  -0.4177  -0.3933  -0.3813
 -0.3362  -0.3079

 Beta MOs
 -- Occupied --
-19.3528 -19.3466 -19.3458 -19.3394 -10.4351 -10.4185 -10.4145 -10.4122
-10.3957 -10.3721 -10.3702  -1.2117  -1.1885  -1.1641  -1.0184  -0.9162
 -0.9085  -0.8411  -0.8139  -0.7579  -0.7429  -0.6776  -0.6463  -0.6264
 -0.6095  -0.5837  -0.5776  -0.5620  -0.5465  -0.5224  -0.5151  -0.4919
 -0.4864  -0.4770  -0.4670  -0.4580  -0.4534  -0.4166  -0.3925  -0.3776
 -0.2875

          Ground-State Mulliken Net Atomic Charges

     Atom                 Charge (a.u.)    Spin (a.u.)
  --------------------------------------------------------
      1 H                     0.306689      -0.000193
      2 C                    -0.070912      -0.005849
      3 C                    -0.499710       0.009553
      4 H                     0.303165       0.000918
      5 C                     0.034105      -0.000066
      6 H                     0.382395      -0.000001
      7 C                     0.338188      -0.013776
      8 C                    -0.606390       0.001527
      9 C                     0.026452       0.000057
     10 H                     0.351747       0.000075
     11 C                    -0.491069       0.006703
     12 H                     0.296347       0.000107
     13 O                    -0.375051       0.000073
     14 H                     0.253286       0.000076
     15 O                    -0.400556       0.001339
     16 H                     0.316252      -0.000184
     17 H                     0.259896       0.000007
     18 H                     0.351115      -0.000032
     19 O                    -0.336273       0.458939
     20 O                    -0.439678       0.540727
  --------------------------------------------------------
  Sum of atomic charges =    -0.000000

                    Cartesian Multipole Moments
 -----------------------------------------------------------------
    Charge (ESU x 10^10)
                -0.0000
    Dipole Moment (Debye)
         X      12.4868      Y       6.8224      Z       3.2495
       Tot      14.5954
    Quadrupole Moments (Debye-Ang)
        XX     -58.4721     XY     -16.8627     YY     -78.3273
        XZ      -3.8708     YZ     -14.6149     ZZ     -66.6608

 Total job time:  55198.23s(wall), 426969.51s(cpu)
        *  Thank you very much for using Q-Chem.  Have a nice day.  *
