 Q-Chem 5.4, Q-Chem, Inc., Pleasanton, CA (2021)
 Q-Chem 5.4.1 for Intel X86 EM64T Linux

User input:
--------------------------------------------------------------
$molecule
0 2
C        -0.6591179312   -0.0056694126    0.6290506165
C        -1.9675173264    0.4790632724    1.1943640848
O        -2.3341356947    1.7838763755    0.7783832765
C         0.0896052480    0.7063571706   -0.2213610395
C         1.3881056707    0.1936004388   -0.7583431131
O         1.3011366358   -0.0463816429   -2.1803619267
C         1.8157362478   -1.0940109005   -0.1252503467
O         2.4911411500   -0.0251634709    1.6643504653
O         1.6652422307   -0.1157915866    2.5740159764
C         0.9209642412   -1.8948080982    0.5662314273
C        -0.2387069140   -1.3337386033    1.0332604876
H        -1.8959929351    0.5094006308    2.2824419428
H        -2.7527507614   -0.2399577956    0.9445151598
H        -2.5118545709    1.7634319802   -0.1683359860
H        -0.2313625359    1.6804195331   -0.5691909840
H         2.1712734525    0.9386122561   -0.5907728667
H         1.2191672797    0.8107032208   -2.6145839032
H         1.2086331936   -2.8904322163    0.8739339309
H        -0.9011050734   -1.9067730441    1.6704994587
H         2.7716971930   -1.4878280073   -0.4433868608
$end

$rem
BASIS = 6-311++G(2df,2p)
GUI = 2
JOB_TYPE = Frequency
METHOD = wB97M-V
SOLVENT_METHOD = SMD
SCF_ALGORITHM = DIIS_GDM
MAX_SCF_CYCLES = 400
SCF_CONVERGENCE = 7
THRESH = 12
$end

--------------------------------------------------------------

   28    -572.8660601972      9.11e-08  Convergence criterion met
 Total energy in the final basis set =     -572.8611487009
   22    -572.8660595219      8.66e-08  Convergence criterion met
 Total energy in the final basis set =     -572.8611477326
   22    -572.8660588893      9.14e-08  Convergence criterion met
 Total energy in the final basis set =     -572.8611476838
   22    -572.8660591558      8.02e-08  Convergence criterion met
 Total energy in the final basis set =     -572.8611476826
   23    -572.8660592871      6.59e-08  Convergence criterion met
 Total energy in the final basis set =     -572.8611477667
   22    -572.8660597181      8.53e-08  Convergence criterion met
 Total energy in the final basis set =     -572.8611479578
   22    -572.8660591849      8.24e-08  Convergence criterion met
 Total energy in the final basis set =     -572.8611479514
   22    -572.8660578379      9.05e-08  Convergence criterion met
 Frequency:      -378.44                  60.99                  94.64
 Force Cnst:      0.7627                 0.0189                 0.0184
 Red. Mass:       9.0384                 8.6465                 3.4802
 IR Intens:      887.784                  1.545                  3.189
 Frequency:       112.87                 144.46                 165.78
 Force Cnst:      0.0412                 0.0700                 0.0626
 Red. Mass:       5.4902                 5.6925                 3.8677
 IR Intens:        4.176                 12.749                  3.374
 Frequency:       175.41                 210.15                 233.28
 Force Cnst:      0.0986                 0.0755                 0.0429
 Red. Mass:       5.4365                 2.9023                 1.3373
 IR Intens:        2.796                 72.000                173.585
 Frequency:       342.04                 350.30                 379.42
 Force Cnst:      0.5358                 0.2233                 0.1023
 Red. Mass:       7.7728                 3.0880                 1.2056
 IR Intens:       29.276                 16.158                205.329
 Frequency:       416.37                 447.13                 475.16
 Force Cnst:      0.5346                 0.3889                 0.5009
 Red. Mass:       5.2340                 3.3014                 3.7658
 IR Intens:       35.416                 14.893                 42.945
 Frequency:       564.42                 578.98                 631.24
 Force Cnst:      0.7292                 1.0053                 0.7270
 Red. Mass:       3.8850                 5.0903                 3.0965
 IR Intens:       32.443                  9.926                 19.742
 Frequency:       760.53                 788.60                 865.64
 Force Cnst:      0.5291                 0.8508                 0.6983
 Red. Mass:       1.5527                 2.3220                 1.5818
 IR Intens:      172.521                 38.706                  4.508
 Frequency:       903.69                 921.74                 978.45
 Force Cnst:      1.3897                 0.7004                 1.7835
 Red. Mass:       2.8883                 1.3993                 3.1618
 IR Intens:      217.127                 98.220                 56.250
 Frequency:       998.10                1007.53                1010.32
 Force Cnst:      1.4374                 1.1037                 1.1699
 Red. Mass:       2.4489                 1.8453                 1.9453
 IR Intens:      390.992                210.675                209.690
 Frequency:      1071.99                1131.83                1146.47
 Force Cnst:      1.2645                 3.9410                 0.9290
 Red. Mass:       1.8676                 5.2216                 1.1997
 IR Intens:       21.578                169.082                 12.103
 Frequency:      1164.75                1200.74                1211.66
 Force Cnst:      0.9305                 1.7770                 0.9395
 Red. Mass:       1.1642                 2.0919                 1.0861
 IR Intens:      176.156                128.000                324.581
 Frequency:      1227.65                1281.77                1312.56
 Force Cnst:      1.2226                 3.5550                 1.4563
 Red. Mass:       1.3769                 3.6726                 1.4347
 IR Intens:       16.654               2010.455                 46.350
 Frequency:      1352.44                1383.36                1397.05
 Force Cnst:      1.6541                 1.4368                 1.5921
 Red. Mass:       1.5349                 1.2743                 1.3845
 IR Intens:      246.118                 59.581                115.171
 Frequency:      1430.51                1440.10                1478.14
 Force Cnst:      2.4087                 2.0522                 1.4743
 Red. Mass:       1.9978                 1.6795                 1.1453
 IR Intens:       14.800                 52.778                 27.159
 Frequency:      1492.96                1552.01                1716.18
 Force Cnst:      4.7317                 4.9490                11.9777
 Red. Mass:       3.6031                 3.4872                 6.9023
 IR Intens:      134.295                  3.297                  2.148
 Frequency:      3034.28                3042.10                3096.29
 Force Cnst:      5.8697                 5.8067                 6.2078
 Red. Mass:       1.0821                 1.0650                 1.0990
 IR Intens:       21.013                 52.023                 24.278
 Frequency:      3186.96                3189.62                3201.53
 Force Cnst:      6.5088                 6.5378                 6.5805
 Red. Mass:       1.0877                 1.0907                 1.0897
 IR Intens:       14.746                  5.025                 13.345
 Frequency:      3215.04                3817.70                3823.72
 Force Cnst:      6.6842                 9.1586                 9.1879
 Red. Mass:       1.0976                 1.0665                 1.0666
 IR Intens:       12.074                129.111                117.043

 STANDARD THERMODYNAMIC QUANTITIES AT   298.15 K  AND     1.00 ATM

   This Molecule has  1 Imaginary Frequencies
   Zero point vibrational energy:       96.091 kcal/mol

   Atom    1 Element C  Has Mass   12.00000
   Atom    2 Element C  Has Mass   12.00000
   Atom    3 Element O  Has Mass   15.99491
   Atom    4 Element C  Has Mass   12.00000
   Atom    5 Element C  Has Mass   12.00000
   Atom    6 Element O  Has Mass   15.99491
   Atom    7 Element C  Has Mass   12.00000
   Atom    8 Element O  Has Mass   15.99491
   Atom    9 Element O  Has Mass   15.99491
   Atom   10 Element C  Has Mass   12.00000
   Atom   11 Element C  Has Mass   12.00000
   Atom   12 Element H  Has Mass    1.00783
   Atom   13 Element H  Has Mass    1.00783
   Atom   14 Element H  Has Mass    1.00783
   Atom   15 Element H  Has Mass    1.00783
   Atom   16 Element H  Has Mass    1.00783
   Atom   17 Element H  Has Mass    1.00783
   Atom   18 Element H  Has Mass    1.00783
   Atom   19 Element H  Has Mass    1.00783
   Atom   20 Element H  Has Mass    1.00783
   Molecular Mass:   157.050110 amu
   Principal axes and moments of inertia in amu*Bohr^2:
                             1           2           3
    Eigenvalues --     1315.03547  1967.33775  2537.92988
          X               0.91251     0.06339     0.40412
          Y              -0.38996    -0.16350     0.90620
          Z              -0.12351     0.98450     0.12448
   Rotational Symmetry Number is   1
   The Molecule is an Asymmetric Top
   Translational Enthalpy:        0.889 kcal/mol
   Rotational Enthalpy:           0.889 kcal/mol
   Vibrational Enthalpy:        101.269 kcal/mol
   gas constant (RT):             0.592 kcal/mol
   Translational Entropy:        41.063  cal/mol.K
   Rotational Entropy:           30.263  cal/mol.K
   Vibrational Entropy:          31.734  cal/mol.K

   Total Enthalpy:              103.639 kcal/mol
   Total Entropy:               103.061  cal/mol.K
 Total job time:  25441.43s(wall), 618099.02s(cpu)
        *  Thank you very much for using Q-Chem.  Have a nice day.  *
 Q-Chem 5.4, Q-Chem, Inc., Pleasanton, CA (2021)
 Q-Chem 5.4.1 for Intel X86 EM64T Linux

User input:
--------------------------------------------------------------

$molecule
read
$end

$rem
JOBTYPE            rpath
SCF_GUESS          read
RPATH_MAX_CYCLES   30
BASIS = 6-311++G(2df,2p)
METHOD = wB97M-V
SOLVENT_METHOD = SMD
SCF_ALGORITHM = DIIS_GDM
SCF_CONVERGENCE = 7
THRESH = 12
$end
--------------------------------------------------------------

 Total energy in the final basis set =     -572.8626034839
   19    -572.8625270130      4.16e-08  Convergence criterion met
 Total energy in the final basis set =     -572.8575790260
   20    -572.8676473941      6.43e-08  Convergence criterion met
 Total energy in the final basis set =     -572.8627065958
   20    -572.8676437245      3.87e-08  Convergence criterion met
 Total energy in the final basis set =     -572.8627031090
   20    -572.8676605045      3.55e-08  Convergence criterion met
 Total energy in the final basis set =     -572.8627197956
   27    -572.8685355457      5.57e-08  Convergence criterion met
 Total energy in the final basis set =     -572.8635865597
   48    -572.8527911296      4.99e-08  Convergence criterion met
 Total energy in the final basis set =     -572.8478333564

             Standard Nuclear Orientation (Angstroms)
    I     Atom           X                Y                Z
 ----------------------------------------------------------------
    1      C      -0.6648794251    -0.0231703901     0.6234130717
    2      C      -1.9681677828     0.4767577903     1.1932523622
    3      O      -2.3319300016     1.7841485171     0.7775013189
    4      C       0.0937237051     0.6941846848    -0.2274404666
    5      C       1.3861200226     0.1742651861    -0.7687079721
    6      O       1.2920388675    -0.0276946625    -2.2129624086
    7      C       1.7838233215    -1.1502435572    -0.2133927080
    8      O       2.5259918013     0.0543829871     1.8061085934
    9      O       1.6736641513    -0.0803887500     2.6461779756
   10      C       0.9357866567    -1.8927292741     0.5508139133
   11      C      -0.2549750893    -1.3361498377     1.0238418261
   12      H      -1.8962456340     0.5098831687     2.2815374840
   13      H      -2.7580420789    -0.2376109698     0.9460617326
   14      H      -2.5107869338     1.7629349570    -0.1689237263
   15      H      -0.2206976502     1.6783947076    -0.5596918135
   16      H       2.1747913185     0.9135999228    -0.6009824830
   17      H       1.2145409960     0.8403234194    -2.6259826482
   18      H       1.2178376890    -2.8867901485     0.8757862837
   19      H      -0.9013077267    -1.9097841688     1.6778474630
   20      H       2.7588716703    -1.5194041832    -0.4847993401
 ----------------------------------------------------------------

   41    -572.8523485856      4.77e-08  Convergence criterion met
 Total energy in the final basis set =     -572.8473994399

                    Orbital Energies (a.u.)
 --------------------------------------------------------------

 Alpha MOs
 -- Occupied --
-19.4542 -19.4491 -19.3394 -19.3386 -10.4014 -10.3884 -10.3657 -10.3605
-10.3548 -10.3463 -10.3431  -1.3902  -1.1586  -1.1525  -0.9839  -0.9110
 -0.8937  -0.8674  -0.8019  -0.7439  -0.7059  -0.6463  -0.6411  -0.6340
 -0.6193  -0.6104  -0.5884  -0.5809  -0.5686  -0.5432  -0.5361  -0.5200
 -0.4881  -0.4755  -0.4686  -0.4322  -0.4266  -0.4028  -0.3896  -0.3736
 -0.3561  -0.2773

 Beta MOs
 -- Occupied --
-19.4523 -19.4450 -19.3394 -19.3370 -10.4019 -10.3884 -10.3598 -10.3566
-10.3556 -10.3454 -10.3429  -1.3842  -1.1585  -1.1491  -0.9789  -0.9024
 -0.8894  -0.8605  -0.7982  -0.7371  -0.7031  -0.6443  -0.6386  -0.6240
 -0.6147  -0.6061  -0.5808  -0.5670  -0.5650  -0.5418  -0.5343  -0.5170
 -0.4841  -0.4723  -0.4643  -0.4289  -0.4144  -0.3993  -0.3877  -0.3675
 -0.3360

          Ground-State Mulliken Net Atomic Charges

     Atom                 Charge (a.u.)    Spin (a.u.)
  --------------------------------------------------------
      1 C                     0.593386      -0.110506
      2 C                    -0.408504       0.006995
      3 O                    -0.448779       0.000357
      4 C                    -0.612103       0.250119
      5 C                    -0.473285       0.013320
      6 O                    -0.419268       0.019508
      7 C                    -0.148684       0.331993
      8 O                    -0.045159       0.080829
      9 O                    -0.024846       0.142934
     10 C                    -0.349426      -0.136763
     11 C                    -0.227654       0.395698
     12 H                     0.220601      -0.004094
     13 H                     0.221807      -0.003186
     14 H                     0.334436      -0.000421
     15 H                     0.271270      -0.005508
     16 H                     0.257063       0.024356
     17 H                     0.329773       0.004991
     18 H                     0.299965       0.004407
     19 H                     0.305179      -0.006684
     20 H                     0.324230      -0.008345
  --------------------------------------------------------
  Sum of atomic charges =     0.000000

                    Cartesian Multipole Moments
 -----------------------------------------------------------------
    Charge (ESU x 10^10)
                 0.0000
    Dipole Moment (Debye)
         X      -1.0324      Y      -0.3609      Z      -1.2576
       Tot       1.6667
    Quadrupole Moments (Debye-Ang)
        XX     -63.4843     XY       4.7116     YY     -63.1309
        XZ      -0.4119     YZ     -13.0168     ZZ     -70.3935
