 Q-Chem 5.4, Q-Chem, Inc., Pleasanton, CA (2021)
 Q-Chem 5.4.1 for Intel X86 EM64T Linux

User input:
--------------------------------------------------------------
$molecule
0 2
H         0.5874129705    1.4909391869    1.4964192142
C        -0.1438913290    1.2813728651    0.7299697247
C        -1.4428310046    1.5481837805    0.8102849572
H        -1.9413301489    2.0191170655    1.6450151397
C        -2.2010367814    1.0748907856   -0.3996915274
H        -3.2797895136    1.1521048117   -0.3146593013
C        -1.6276114372    1.7217012238   -1.6082584478
H        -2.2116632258    2.2784856197   -2.3240531447
C        -0.1676528660    1.4719632963   -1.7528197904
H         0.0498760995    0.9159025523   -2.6697115506
C         0.2219174681    0.5999172214   -0.5536455623
H         1.2536411630    0.2648676734   -0.6070366862
O         0.6307940890    2.6601100502   -1.7121785753
H         0.3708572905    3.2175089579   -2.4540497623
O        -1.9663291145   -0.3702966904   -0.5071115206
O        -0.5463295596   -0.6241341998   -0.6830017666
$end

$rem
BASIS = 6-311++G(2df,2p)
GUI = 2
JOB_TYPE = Frequency
METHOD = wB97M-V
SOLVENT_METHOD = SMD
SCF_ALGORITHM = DIIS_GDM
MAX_SCF_CYCLES = 400
SCF_CONVERGENCE = 7
THRESH = 12
$end
--------------------------------------------------------------

   18    -458.3368512123      9.57e-08  Convergence criterion met
 Total energy in the final basis set =     -458.3328921469
   16    -458.3368510834      6.47e-08  Convergence criterion met
 Total energy in the final basis set =     -458.3328917622
   16    -458.3368506463      6.44e-08  Convergence criterion met
 Total energy in the final basis set =     -458.3328918353
   16    -458.3368512237      6.50e-08  Convergence criterion met
 Total energy in the final basis set =     -458.3328920850
   16    -458.3368510572      6.39e-08  Convergence criterion met
 Total energy in the final basis set =     -458.3328920647
   16    -458.3368511068      6.48e-08  Convergence criterion met
 Total energy in the final basis set =     -458.3328917733
   16    -458.3368505950      6.49e-08  Convergence criterion met
 Total energy in the final basis set =     -458.3328917962
   16    -458.3368502620      6.66e-08  Convergence criterion met
 Total energy in the final basis set =     -458.3328920580
   16    -458.3368511206      6.64e-08  Convergence criterion met
 Total energy in the final basis set =     -458.3328920407
   16    -458.3368504034      6.38e-08  Convergence criterion met
 Total energy in the final basis set =     -458.3328915201
   16    -458.3368508370      6.41e-08  Convergence criterion met
 Total energy in the final basis set =     -458.3328915891
   16    -458.3368505668      6.42e-08  Convergence criterion met
 Total energy in the final basis set =     -458.3328914608
   16    -458.3368506582      6.57e-08  Convergence criterion met
 Total energy in the final basis set =     -458.3328916331
   16    -458.3368510560      6.41e-08  Convergence criterion met
 Total energy in the final basis set =     -458.3328920407
   16    -458.3368511549      6.42e-08  Convergence criterion met
 Total energy in the final basis set =     -458.3328920394

                    Orbital Energies (a.u.)
 --------------------------------------------------------------

 Alpha MOs
 -- Occupied --
-19.4003 -19.3990 -19.3429 -10.4092 -10.4063 -10.4019 -10.3595 -10.3513
-10.3485  -1.2632  -1.1624  -1.0599  -0.9797  -0.8811  -0.8273  -0.7699
 -0.7207  -0.6636  -0.6497  -0.6086  -0.6057  -0.5820  -0.5545  -0.5435
 -0.5255  -0.5050  -0.4882  -0.4722  -0.4619  -0.4418  -0.3992  -0.3776
 -0.3489  -0.3032

 Beta MOs
 -- Occupied --
-19.4003 -19.3974 -19.3415 -10.4099 -10.4064 -10.4026 -10.3510 -10.3477
-10.3466  -1.2615  -1.1592  -1.0580  -0.9742  -0.8700  -0.8219  -0.7656
 -0.7114  -0.6598  -0.6450  -0.6042  -0.6005  -0.5784  -0.5470  -0.5420
 -0.5229  -0.5000  -0.4824  -0.4628  -0.4601  -0.4394  -0.3945  -0.3698
 -0.3466

          Ground-State Mulliken Net Atomic Charges

     Atom                 Charge (a.u.)    Spin (a.u.)
  --------------------------------------------------------
      1 H                     0.287722      -0.000510
      2 C                    -0.199735       0.058272
      3 C                    -0.285904      -0.008315
      4 H                     0.286236      -0.002399
      5 C                     0.039607      -0.029666
      6 H                     0.275232       0.006394
      7 C                    -0.334285       0.899836
      8 H                     0.304473      -0.015023
      9 C                    -0.127086       0.003765
     10 H                     0.247342       0.027210
     11 C                    -0.407309      -0.000462
     12 H                     0.270442      -0.000923
     13 O                    -0.436416       0.029379
     14 H                     0.344978      -0.002749
     15 O                    -0.163978       0.034355
     16 O                    -0.101319       0.000837
  --------------------------------------------------------
  Sum of atomic charges =    -0.000000

                    Cartesian Multipole Moments
 -----------------------------------------------------------------
    Charge (ESU x 10^10)
                -0.0000
    Dipole Moment (Debye)
         X      -0.8292      Y       3.9650      Z      -1.1523
       Tot       4.2115
    Quadrupole Moments (Debye-Ang)
        XX     -47.8103     XY     -10.7883     YY     -51.8901
        XZ       1.2748     YZ      -6.4482     ZZ     -42.9675

             Standard Nuclear Orientation (Angstroms)
    I     Atom           X                Y                Z
 ----------------------------------------------------------------
    1      H       0.5874129705     1.4909391869     1.4964192142
    2      C      -0.1438913290     1.2813728651     0.7299697247
    3      C      -1.4428310046     1.5481837805     0.8102849572
    4      H      -1.9413301489     2.0191170655     1.6450151397
    5      C      -2.2010367814     1.0748907856    -0.3996915274
    6      H      -3.2797895136     1.1521048117    -0.3146593013
    7      C      -1.6276114372     1.7217012238    -1.6082584478
    8      H      -2.2116632258     2.2784856197    -2.3240531447
    9      C      -0.1676528660     1.4719632963    -1.7528197904
   10      H       0.0498760995     0.9159025523    -2.6697115506
   11      C       0.2219174681     0.5999172214    -0.5536455623
   12      H       1.2536411630     0.2648676734    -0.6070366862
   13      O       0.6307940890     2.6601100502    -1.7121785753
   14      H       0.3708572905     3.2175089579    -2.4540497623
   15      O      -1.9663291145    -0.3702966904    -0.5071115206
   16      O      -0.5463295596    -0.6241341998    -0.6830017666
 ----------------------------------------------------------------

 Frequency:       132.26                 184.82                 238.70
 Force Cnst:      0.0532                 0.0210                 0.0434
 Red. Mass:       5.1577                 1.0436                 1.2934
 IR Intens:       18.576                189.114                 44.175
 Frequency:       247.12                 293.58                 391.40
 Force Cnst:      0.2503                 0.1877                 0.3660
 Red. Mass:       6.9559                 3.6970                 4.0555
 IR Intens:       13.061                  9.155                  2.015
 Frequency:       407.96                 460.58                 553.41
 Force Cnst:      0.3680                 0.6744                 0.9945
 Red. Mass:       3.7532                 5.3958                 5.5115
 IR Intens:        5.979                 13.838                 24.196
 Frequency:       605.67                 680.79                 727.07
 Force Cnst:      1.2761                 1.7295                 1.1745
 Red. Mass:       5.9042                 6.3335                 3.7709
 IR Intens:        8.495                  8.959                 11.711
 Frequency:       740.13                 818.23                 855.35
 Force Cnst:      0.6749                 1.7461                 1.4780
 Red. Mass:       2.0911                 4.4266                 3.4288
 IR Intens:       46.631                146.581                  2.767
 Frequency:       897.28                 953.27                 970.39
 Force Cnst:      1.7304                 1.7234                 1.2476
 Red. Mass:       3.6478                 3.2189                 2.2488
 IR Intens:       23.856                 52.037                 16.387
 Frequency:       997.48                1000.32                1023.69
 Force Cnst:      2.0318                 1.0183                 2.0740
 Red. Mass:       3.4659                 1.7273                 3.3592
 IR Intens:       85.549                 50.612                 51.551
 Frequency:      1036.60                1073.57                1086.09
 Force Cnst:      1.0233                 2.3282                 1.1379
 Red. Mass:       1.6163                 3.4285                 1.6372
 IR Intens:        2.512                 98.811                 11.521
 Frequency:      1113.58                1182.87                1270.29
 Force Cnst:      0.8786                 0.9457                 1.8136
 Red. Mass:       1.2025                 1.1472                 1.9076
 IR Intens:        3.341                 38.391                 36.563
 Frequency:      1293.26                1297.23                1316.02
 Force Cnst:      1.2838                 1.2728                 1.3511
 Red. Mass:       1.3028                 1.2838                 1.3240
 IR Intens:        3.944                  3.633                  0.446
 Frequency:      1332.67                1373.37                1384.27
 Force Cnst:      1.4592                 2.1395                 2.3087
 Red. Mass:       1.3945                 1.9252                 2.0449
 IR Intens:        3.491                 44.387                 12.043
 Frequency:      1412.54                1695.28                3034.76
 Force Cnst:      2.0214                10.5781                 5.8732
 Red. Mass:       1.7195                 6.2470                 1.0824
 IR Intens:       14.021                  0.336                 45.549
 Frequency:      3151.14                3165.66                3212.35
 Force Cnst:      6.3726                 6.4347                 6.6149
 Red. Mass:       1.0893                 1.0898                 1.0880
 IR Intens:        9.867                  4.882                  2.325
 Frequency:      3232.18                3236.99                3826.12
 Force Cnst:      6.8000                 6.7461                 9.2013
 Red. Mass:       1.1048                 1.0927                 1.0668
 IR Intens:        7.768                  3.273                132.718

 STANDARD THERMODYNAMIC QUANTITIES AT   298.15 K  AND     1.00 ATM

   This Molecule has  0 Imaginary Frequencies
   Zero point vibrational energy:       77.063 kcal/mol

   Atom    1 Element H  Has Mass    1.00783
   Atom    2 Element C  Has Mass   12.00000
   Atom    3 Element C  Has Mass   12.00000
   Atom    4 Element H  Has Mass    1.00783
   Atom    5 Element C  Has Mass   12.00000
   Atom    6 Element H  Has Mass    1.00783
   Atom    7 Element C  Has Mass   12.00000
   Atom    8 Element H  Has Mass    1.00783
   Atom    9 Element C  Has Mass   12.00000
   Atom   10 Element H  Has Mass    1.00783
   Atom   11 Element C  Has Mass   12.00000
   Atom   12 Element H  Has Mass    1.00783
   Atom   13 Element O  Has Mass   15.99491
   Atom   14 Element H  Has Mass    1.00783
   Atom   15 Element O  Has Mass   15.99491
   Atom   16 Element O  Has Mass   15.99491
   Molecular Mass:   127.039540 amu
   Principal axes and moments of inertia in amu*Bohr^2:
                             1           2           3
    Eigenvalues --      653.11715  1048.11896  1057.36649
          X               0.60301    -0.69059     0.39934
          Y               0.65576     0.71417     0.24482
          Z              -0.45426     0.11424     0.88351
   Rotational Symmetry Number is   1
   The Molecule is an Asymmetric Top
   Translational Enthalpy:        0.889 kcal/mol
   Rotational Enthalpy:           0.889 kcal/mol
   Vibrational Enthalpy:         80.083 kcal/mol
   gas constant (RT):             0.592 kcal/mol
   Translational Entropy:        40.431  cal/mol.K
   Rotational Entropy:           28.072  cal/mol.K
   Vibrational Entropy:          16.255  cal/mol.K

   Total Enthalpy:               82.453 kcal/mol
   Total Entropy:                84.759  cal/mol.K
 Total job time:  15271.97s(wall), 220037.43s(cpu)
        *  Thank you very much for using Q-Chem.  Have a nice day.  *
