 Q-Chem 5.4, Q-Chem, Inc., Pleasanton, CA (2021)
 Q-Chem 5.4.1 for Intel X86 EM64T Linux

User input:
--------------------------------------------------------------
$molecule
0 2
H         0.5982654870    1.4960772570    1.4969557250
C        -0.1386368850    1.2833998653    0.7297587499
C        -1.4428694438    1.5541614102    0.8117458801
H        -1.9401937845    2.0304079294    1.6504735842
C        -2.2038948414    1.0750013646   -0.3998659146
H        -3.2876446665    1.1539973412   -0.3147042235
C        -1.6290006315    1.7158512258   -1.6169138276
H        -2.2145942804    2.2752067683   -2.3365182151
C        -0.1619022328    1.4721696944   -1.7582876817
H         0.0630210870    0.9171569234   -2.6805728651
C         0.2227371108    0.5943737000   -0.5563684918
H         1.2578452920    0.2538241077   -0.6101411119
O         0.6312927999    2.6621809488   -1.6949583867
H         0.3546561245    3.2224865123   -2.4385681605
O        -1.9748613303   -0.3729879591   -0.5004326593
O        -0.5481857049   -0.6306728893   -0.6861310012
$end

$rem
BASIS = 6-311++G(2df,2p)
GUI = 2
JOB_TYPE = Optimization
METHOD = wB97M-V
SCF_ALGORITHM = DIIS_GDM
MAX_SCF_CYCLES = 400
GEOM_OPT_MAX_CYCLES = 150
SCF_CONVERGENCE = 7
THRESH = 12
Solvent_method = SMD
$end
--------------------------------------------------------------

   18    -458.3365167335      9.52e-08  Convergence criterion met
 Total energy in the final basis set =     -458.3325246056
   16    -458.3368414696      6.19e-08  Convergence criterion met
 Total energy in the final basis set =     -458.3328844035
   16    -458.3368488572      6.20e-08  Convergence criterion met
 Total energy in the final basis set =     -458.3328911813

             Standard Nuclear Orientation (Angstroms)
    I     Atom           X                Y                Z
 ----------------------------------------------------------------
    1      H       0.5874129705     1.4909391869     1.4964192142
    2      C      -0.1438913290     1.2813728651     0.7299697247
    3      C      -1.4428310046     1.5481837805     0.8102849572
    4      H      -1.9413301489     2.0191170655     1.6450151397
    5      C      -2.2010367814     1.0748907856    -0.3996915274
    6      H      -3.2797895136     1.1521048117    -0.3146593013
    7      C      -1.6276114372     1.7217012238    -1.6082584478
    8      H      -2.2116632258     2.2784856197    -2.3240531447
    9      C      -0.1676528660     1.4719632963    -1.7528197904
   10      H       0.0498760995     0.9159025523    -2.6697115506
   11      C       0.2219174681     0.5999172214    -0.5536455623
   12      H       1.2536411630     0.2648676734    -0.6070366862
   13      O       0.6307940890     2.6601100502    -1.7121785753
   14      H       0.3708572905     3.2175089579    -2.4540497623
   15      O      -1.9663291145    -0.3702966904    -0.5071115206
   16      O      -0.5463295596    -0.6241341998    -0.6830017666
 ----------------------------------------------------------------

   16    -458.3368512124      6.35e-08  Convergence criterion met
 Total energy in the final basis set =     -458.3328921470
 Final energy is   -458.332892147014
 **  OPTIMIZATION CONVERGED  **

                    Orbital Energies (a.u.)
 --------------------------------------------------------------

 Alpha MOs
 -- Occupied --
-19.4003 -19.3990 -19.3429 -10.4092 -10.4063 -10.4019 -10.3595 -10.3513
-10.3485  -1.2632  -1.1624  -1.0599  -0.9797  -0.8811  -0.8273  -0.7699
 -0.7207  -0.6636  -0.6497  -0.6085  -0.6058  -0.5821  -0.5545  -0.5435
 -0.5255  -0.5050  -0.4882  -0.4722  -0.4619  -0.4418  -0.3992  -0.3776
 -0.3488  -0.3032

 Beta MOs
 -- Occupied --
-19.4003 -19.3974 -19.3415 -10.4099 -10.4064 -10.4026 -10.3510 -10.3477
-10.3466  -1.2615  -1.1592  -1.0580  -0.9742  -0.8700  -0.8219  -0.7656
 -0.7114  -0.6598  -0.6450  -0.6042  -0.6005  -0.5784  -0.5470  -0.5420
 -0.5229  -0.5000  -0.4824  -0.4627  -0.4601  -0.4394  -0.3945  -0.3698
 -0.3466

          Ground-State Mulliken Net Atomic Charges

     Atom                 Charge (a.u.)    Spin (a.u.)
  --------------------------------------------------------
      1 H                     0.287717      -0.000509
      2 C                    -0.199734       0.058264
      3 C                    -0.286073      -0.008302
      4 H                     0.286229      -0.002399
      5 C                     0.039636      -0.029668
      6 H                     0.275238       0.006392
      7 C                    -0.334259       0.899826
      8 H                     0.304464      -0.015022
      9 C                    -0.126924       0.003768
     10 H                     0.247295       0.027214
     11 C                    -0.407425      -0.000462
     12 H                     0.270439      -0.000924
     13 O                    -0.436370       0.029380
     14 H                     0.344989      -0.002749
     15 O                    -0.163971       0.034345
     16 O                    -0.101252       0.000846
  --------------------------------------------------------
  Sum of atomic charges =    -0.000000

                    Cartesian Multipole Moments
 -----------------------------------------------------------------
    Charge (ESU x 10^10)
                 0.0000
    Dipole Moment (Debye)
         X      -0.8287      Y       3.9647      Z      -1.1543
       Tot       4.2116
    Quadrupole Moments (Debye-Ang)
        XX     -47.8108     XY     -10.7868     YY     -51.8904
        XZ       1.2756     YZ      -6.4487     ZZ     -42.9658

 Total job time:  411.44s(wall), 10713.51s(cpu)
        *  Thank you very much for using Q-Chem.  Have a nice day.  *
