 Q-Chem 5.4, Q-Chem, Inc., Pleasanton, CA (2021)
 Q-Chem 5.4.1 for Intel X86 EM64T Linux

User input:
--------------------------------------------------------------
$molecule
0 2
C    0.8592241   -0.1971614    0.1678858
O    0.6690875   -1.5224491    0.6187156
C    2.3569171    0.1720295    0.0849392
O    3.0543850   -0.7384739   -0.7380161
O    2.4877454    1.4669156   -0.2982082
C    2.9935967    0.1963500    1.4735868
C    4.3026865    0.2342668    1.6875439
C    5.3765460    0.2495937    0.6347771
O    6.4990590    0.8685453    1.2054444
O    5.7420289   -1.0786732    0.2863778
H    0.3627009    0.5262147    0.8131911
H    0.4427178   -0.1310736   -0.8359240
H    0.7945470   -1.5475479    1.5737247
H    2.6185039   -0.7648073   -1.5998088
H    2.2951174    0.2153660    2.2994869
H    4.6660887    0.2027140    2.7092130
H    5.0618161    0.7848646   -0.2602700
H    7.1132192    1.0914706    0.4965222
H    5.0141832   -1.4248695   -0.2492307
$end

$rem
BASIS = 6-311++G(2df,2p)
GUI = 2
JOB_TYPE = Frequency
METHOD = wB97M-V
SOLVENT_METHOD = SMD
SCF_ALGORITHM = DIIS_GDM
MAX_SCF_CYCLES = 400
SCF_CONVERGENCE = 7
THRESH = 12
$end
--------------------------------------------------------------

   25    -572.0131103802      8.34e-08  Convergence criterion met
 Total energy in the final basis set =     -572.0066886989
   21    -572.0131075133      6.79e-08  Convergence criterion met
 Total energy in the final basis set =     -572.0066881292
   21    -572.0131116727      5.50e-08  Convergence criterion met
 Total energy in the final basis set =     -572.0066876810
   21    -572.0131077428      6.64e-08  Convergence criterion met
 Total energy in the final basis set =     -572.0066876618
   21    -572.0131111933      6.22e-08  Convergence criterion met
 Total energy in the final basis set =     -572.0066875207
   21    -572.0131096064      5.93e-08  Convergence criterion met
 Total energy in the final basis set =     -572.0066875406
   21    -572.0131088667      6.13e-08  Convergence criterion met
 Total energy in the final basis set =     -572.0066875206
   21    -572.0131110404      5.85e-08  Convergence criterion met
 Total energy in the final basis set =     -572.0066880754
   21    -572.0131100550      6.07e-08  Convergence criterion met
 Total energy in the final basis set =     -572.0066882512
   21    -572.0131098794      6.03e-08  Convergence criterion met
 Total energy in the final basis set =     -572.0066881424
   21    -572.0131098542      5.99e-08  Convergence criterion met
 Total energy in the final basis set =     -572.0066882285
   21    -572.0131094239      6.04e-08  Convergence criterion met
 Total energy in the final basis set =     -572.0066885073
   21    -572.0131109242      6.02e-08  Convergence criterion met
 Total energy in the final basis set =     -572.0066884781
   21    -572.0131096555      6.03e-08  Convergence criterion met
 Total energy in the final basis set =     -572.0066884185
   21    -572.0131105239      6.03e-08  Convergence criterion met
 Total energy in the final basis set =     -572.0066883982

                    Orbital Energies (a.u.)
 --------------------------------------------------------------

 Alpha MOs
 -- Occupied --
-19.3904 -19.3512 -19.3495 -19.3470 -19.3409 -10.4659 -10.4508 -10.3974
-10.3707 -10.3640  -1.2192  -1.2016  -1.1653  -1.1408  -1.1338  -0.9347
 -0.8571  -0.8061  -0.7502  -0.6826  -0.6738  -0.6469  -0.6361  -0.6107
 -0.6072  -0.5918  -0.5556  -0.5426  -0.5349  -0.5176  -0.4943  -0.4776
 -0.4674  -0.4515  -0.4392  -0.4294  -0.4228  -0.3988  -0.3847  -0.3698

 Beta MOs
 -- Occupied --
-19.3694 -19.3513 -19.3495 -19.3467 -19.3406 -10.4661 -10.4509 -10.3963
-10.3689 -10.3626  -1.2062  -1.1997  -1.1629  -1.1345  -1.1111  -0.9283
 -0.8497  -0.8032  -0.7439  -0.6808  -0.6711  -0.6451  -0.6286  -0.6045
 -0.5908  -0.5881  -0.5511  -0.5394  -0.5277  -0.5040  -0.4794  -0.4676
 -0.4580  -0.4414  -0.4269  -0.4135  -0.4023  -0.3911  -0.3706

          Ground-State Mulliken Net Atomic Charges

     Atom                 Charge (a.u.)    Spin (a.u.)
  --------------------------------------------------------
      1 C                    -0.281576       0.023699
      2 O                    -0.387554       0.010142
      3 C                    -0.235174       0.019959
      4 O                    -0.437292      -0.001462
      5 O                    -0.215876       0.799246
      6 C                     0.008577       0.040933
      7 C                    -0.085846       0.104562
      8 C                    -0.224852      -0.002165
      9 O                    -0.436997       0.000736
     10 O                    -0.433604       0.005698
     11 H                     0.251865      -0.002059
     12 H                     0.220098       0.000896
     13 H                     0.329537      -0.000546
     14 H                     0.374577       0.000392
     15 H                     0.300937       0.000379
     16 H                     0.282770       0.000537
     17 H                     0.296582      -0.000942
     18 H                     0.336023      -0.000124
     19 H                     0.337802       0.000118
  --------------------------------------------------------
  Sum of atomic charges =    -0.000000

                    Cartesian Multipole Moments
 -----------------------------------------------------------------
    Charge (ESU x 10^10)
                -0.0000
    Dipole Moment (Debye)
         X      -3.5008      Y       0.8270      Z      -0.6826
       Tot       3.6614
    Quadrupole Moments (Debye-Ang)
        XX     -85.1995     XY       5.9444     YY     -69.9248
        XZ     -12.3418     YZ      -0.2204     ZZ     -50.1915

             Standard Nuclear Orientation (Angstroms)
    I     Atom           X                Y                Z
 ----------------------------------------------------------------
    1      C       0.8592241000    -0.1971614000     0.1678858000
    2      O       0.6690875000    -1.5224491000     0.6187156000
    3      C       2.3569171000     0.1720295000     0.0849392000
    4      O       3.0543850000    -0.7384739000    -0.7380161000
    5      O       2.4877454000     1.4669156000    -0.2982082000
    6      C       2.9935967000     0.1963500000     1.4735868000
    7      C       4.3026865000     0.2342668000     1.6875439000
    8      C       5.3765460000     0.2495937000     0.6347771000
    9      O       6.4990590000     0.8685453000     1.2054444000
   10      O       5.7420289000    -1.0786732000     0.2863778000
   11      H       0.3627009000     0.5262147000     0.8131911000
   12      H       0.4427178000    -0.1310736000    -0.8359240000
   13      H       0.7945470000    -1.5475479000     1.5737247000
   14      H       2.6185039000    -0.7648073000    -1.5998088000
   15      H       2.2951174000     0.2153660000     2.2994869000
   16      H       4.6660887000     0.2027140000     2.7092130000
   17      H       5.0618161000     0.7848646000    -0.2602700000
   18      H       7.1132192000     1.0914706000     0.4965222000
   19      H       5.0141832000    -1.4248695000    -0.2492307000
 ----------------------------------------------------------------

 Frequency:        44.47                  75.97                  98.51
 Force Cnst:      0.0076                 0.0172                 0.0248
 Red. Mass:       6.5558                 5.0655                 4.3453
 IR Intens:        0.460                 20.016                  6.076
 Frequency:       144.37                 177.25                 213.57
 Force Cnst:      0.0513                 0.1095                 0.0940
 Red. Mass:       4.1763                 5.9181                 3.4963
 IR Intens:       13.665                 11.683                  7.614
 Frequency:       230.33                 264.83                 277.99
 Force Cnst:      0.0490                 0.0680                 0.0827
 Red. Mass:       1.5691                 1.6465                 1.8153
 IR Intens:       83.277                250.599                114.224
 Frequency:       318.30                 344.06                 369.25
 Force Cnst:      0.0644                 0.1387                 0.1402
 Red. Mass:       1.0791                 1.9894                 1.7456
 IR Intens:      198.185                 11.902                103.259
 Frequency:       397.03                 443.74                 460.43
 Force Cnst:      0.2024                 0.4548                 0.4611
 Red. Mass:       2.1796                 3.9203                 3.6917
 IR Intens:      156.990                 18.384                 49.663
 Frequency:       503.37                 580.28                 614.74
 Force Cnst:      0.6201                 0.9211                 1.3305
 Red. Mass:       4.1538                 4.6430                 5.9754
 IR Intens:       24.515                 39.343                 16.736
 Frequency:       695.03                 771.56                 810.17
 Force Cnst:      1.3612                 0.7097                 1.2336
 Red. Mass:       4.7828                 2.0234                 3.1900
 IR Intens:       13.633                 30.662                 26.783
 Frequency:       933.05                 967.85                1010.86
 Force Cnst:      1.1029                 1.6179                 2.0575
 Red. Mass:       2.1501                 2.9314                 3.4175
 IR Intens:       79.117                  6.330                 39.081
 Frequency:      1023.13                1031.41                1069.24
 Force Cnst:      1.0640                 1.3429                 2.4102
 Red. Mass:       1.7252                 2.1426                 3.5781
 IR Intens:       29.165                 62.674                166.426
 Frequency:      1162.38                1174.00                1201.61
 Force Cnst:      1.4529                 1.3053                 0.9102
 Red. Mass:       1.8251                 1.6074                 1.0700
 IR Intens:      525.447                 30.832                 37.306
 Frequency:      1243.51                1264.88                1267.40
 Force Cnst:      2.0603                 2.3611                 1.1309
 Red. Mass:       2.2615                 2.5048                 1.1950
 IR Intens:      166.261                161.917                133.801
 Frequency:      1321.79                1342.74                1371.98
 Force Cnst:      1.6986                 1.5089                 1.5369
 Red. Mass:       1.6501                 1.4205                 1.3858
 IR Intens:      196.654                 37.095                 15.644
 Frequency:      1384.01                1404.21                1410.70
 Force Cnst:      1.4722                 1.6361                 1.4825
 Red. Mass:       1.3045                 1.4083                 1.2644
 IR Intens:       16.709                 34.369                123.371
 Frequency:      1470.82                1485.40                1716.46
 Force Cnst:      2.1685                 1.5447                12.8460
 Red. Mass:       1.7014                 1.1883                 7.4003
 IR Intens:      146.708                  5.539                 15.342
 Frequency:      3079.97                3095.92                3140.88
 Force Cnst:      5.9120                 6.1383                 6.4556
 Red. Mass:       1.0578                 1.0870                 1.1107
 IR Intens:       42.461                 26.861                 24.616
 Frequency:      3172.06                3206.40                3760.66
 Force Cnst:      6.4487                 6.6374                 8.8777
 Red. Mass:       1.0878                 1.0958                 1.0654
 IR Intens:        2.154                  2.194                199.543
 Frequency:      3793.99                3823.39                3823.63
 Force Cnst:      9.0431                 9.1887                 9.1876
 Red. Mass:       1.0663                 1.0669                 1.0666
 IR Intens:      137.908                151.300                119.234

 STANDARD THERMODYNAMIC QUANTITIES AT   298.15 K  AND     1.00 ATM

   This Molecule has  0 Imaginary Frequencies
   Zero point vibrational energy:       92.907 kcal/mol

   Atom    1 Element C  Has Mass   12.00000
   Atom    2 Element O  Has Mass   15.99491
   Atom    3 Element C  Has Mass   12.00000
   Atom    4 Element O  Has Mass   15.99491
   Atom    5 Element O  Has Mass   15.99491
   Atom    6 Element C  Has Mass   12.00000
   Atom    7 Element C  Has Mass   12.00000
   Atom    8 Element C  Has Mass   12.00000
   Atom    9 Element O  Has Mass   15.99491
   Atom   10 Element O  Has Mass   15.99491
   Atom   11 Element H  Has Mass    1.00783
   Atom   12 Element H  Has Mass    1.00783
   Atom   13 Element H  Has Mass    1.00783
   Atom   14 Element H  Has Mass    1.00783
   Atom   15 Element H  Has Mass    1.00783
   Atom   16 Element H  Has Mass    1.00783
   Atom   17 Element H  Has Mass    1.00783
   Atom   18 Element H  Has Mass    1.00783
   Atom   19 Element H  Has Mass    1.00783
   Molecular Mass:   149.045020 amu
   Principal axes and moments of inertia in amu*Bohr^2:
                             1           2           3
    Eigenvalues --      687.33896  2409.78629  2508.59644
          X               0.97937    -0.16705    -0.11371
          Y               0.14960     0.97764    -0.14777
          Z               0.13585     0.12771     0.98246
   Rotational Symmetry Number is   1
   The Molecule is an Asymmetric Top
   Translational Enthalpy:        0.889 kcal/mol
   Rotational Enthalpy:           0.889 kcal/mol
   Vibrational Enthalpy:         98.383 kcal/mol
   gas constant (RT):             0.592 kcal/mol
   Translational Entropy:        40.907  cal/mol.K
   Rotational Entropy:           29.809  cal/mol.K
   Vibrational Entropy:          34.085  cal/mol.K

   Total Enthalpy:              100.753 kcal/mol
   Total Entropy:               104.801  cal/mol.K
 Total job time:  25420.84s(wall), 362204.01s(cpu)
        *  Thank you very much for using Q-Chem.  Have a nice day.  *
