 Q-Chem 5.4, Q-Chem, Inc., Pleasanton, CA (2021)
 Q-Chem 5.4.1 for Intel X86 EM64T Linux

User input:
--------------------------------------------------------------
$molecule
0 2
C         0.8571819997   -0.2038446142    0.1645736227
O         0.6497427633   -1.5300646627    0.6053086433
C         2.3630938355    0.1458779671    0.0990096362
O         3.0552004827   -0.8051857300   -0.6911972528
O         2.5198006717    1.4305991912   -0.3176032686
C         2.9899384324    0.1835481854    1.4938840042
C         4.3051597070    0.2590365750    1.7023620250
C         5.3693203382    0.2760501755    0.6308686491
O         6.5078386950    0.8676169203    1.2006930548
O         5.7002670465   -1.0495266900    0.2487253114
H         0.3584349154    0.5320099537    0.8039683605
H         0.4494264929   -0.1312515617   -0.8477435327
H         0.8030753187   -1.5492512996    1.5641384178
H         2.6957669793   -0.7492299525   -1.5946917655
H         2.2902688019    0.1930421661    2.3256004514
H         4.6790212378    0.2416085307    2.7251756549
H         5.0364655234    0.8408745173   -0.2477412711
H         7.1481776644    0.9968043099    0.4813098460
H         4.9319892941   -1.3454388816   -0.2766897865
$end

$rem
BASIS = 6-311++G(2df,2p)
GUI = 2
JOB_TYPE = Optimization
METHOD = wB97M-V
SCF_ALGORITHM = DIIS_GDM
MAX_SCF_CYCLES = 400
GEOM_OPT_MAX_CYCLES = 150
SCF_CONVERGENCE = 7
THRESH = 12
Solvent_method = SMD
$end
--------------------------------------------------------------

   26    -572.0121593122      3.83e-08  Convergence criterion met
 Total energy in the final basis set =     -572.0058298701
   21    -572.0128734318      3.82e-08  Convergence criterion met
 Total energy in the final basis set =     -572.0064470830
   21    -572.0128800838      7.30e-08  Convergence criterion met
 Total energy in the final basis set =     -572.0064444128
   21    -572.0130645615      7.32e-08  Convergence criterion met
 Total energy in the final basis set =     -572.0066383543
   21    -572.0130854667      7.64e-08  Convergence criterion met
 Total energy in the final basis set =     -572.0066593259
   21    -572.0131089413      8.32e-08  Convergence criterion met
 Total energy in the final basis set =     -572.0066829864
   21    -572.0131145564      6.65e-08  Convergence criterion met
 Total energy in the final basis set =     -572.0066877097

             Standard Nuclear Orientation (Angstroms)
    I     Atom           X                Y                Z
 ----------------------------------------------------------------
    1      C       0.8592240586    -0.1971613593     0.1678858184
    2      O       0.6690874655    -1.5224491232     0.6187155931
    3      C       2.3569171272     0.1720294777     0.0849392353
    4      O       3.0543850073    -0.7384738732    -0.7380161459
    5      O       2.4877453504     1.4669156311    -0.2982081542
    6      C       2.9935967228     0.1963500237     1.4735868232
    7      C       4.3026864558     0.2342668308     1.6875438914
    8      C       5.3765459814     0.2495937188     0.6347771243
    9      O       6.4990589846     0.8685453423     1.2054444384
   10      O       5.7420288969    -1.0786731846     0.2863777625
   11      H       0.3627008953     0.5262147162     0.8131910620
   12      H       0.4427178330    -0.1310735907    -0.8359239657
   13      H       0.7945470369    -1.5475478997     1.5737247151
   14      H       2.6185038689    -0.7648072870    -1.5998088465
   15      H       2.2951174174     0.2153659768     2.2994869247
   16      H       4.6660886725     0.2027140353     2.7092130166
   17      H       5.0618160752     0.7848645947    -0.2602699584
   18      H       7.1132191520     1.0914705707     0.4965221889
   19      H       5.0141831983    -1.4248695006    -0.2492307230
 ----------------------------------------------------------------

   20    -572.0131103795      8.39e-08  Convergence criterion met
 Total energy in the final basis set =     -572.0066886989
 Final energy is   -572.006688698889
 **  OPTIMIZATION CONVERGED  **

                    Orbital Energies (a.u.)
 --------------------------------------------------------------

 Alpha MOs
 -- Occupied --
-19.3904 -19.3512 -19.3495 -19.3470 -19.3409 -10.4659 -10.4509 -10.3974
-10.3707 -10.3640  -1.2192  -1.2017  -1.1653  -1.1408  -1.1338  -0.9347
 -0.8571  -0.8061  -0.7502  -0.6826  -0.6738  -0.6469  -0.6361  -0.6107
 -0.6072  -0.5918  -0.5556  -0.5426  -0.5349  -0.5176  -0.4943  -0.4776
 -0.4674  -0.4515  -0.4392  -0.4294  -0.4228  -0.3988  -0.3847  -0.3699

 Beta MOs
 -- Occupied --
-19.3694 -19.3513 -19.3495 -19.3467 -19.3406 -10.4661 -10.4509 -10.3963
-10.3689 -10.3626  -1.2062  -1.1998  -1.1629  -1.1346  -1.1111  -0.9283
 -0.8497  -0.8032  -0.7440  -0.6808  -0.6711  -0.6451  -0.6286  -0.6045
 -0.5908  -0.5881  -0.5511  -0.5394  -0.5277  -0.5041  -0.4794  -0.4676
 -0.4580  -0.4414  -0.4269  -0.4135  -0.4023  -0.3911  -0.3706

          Ground-State Mulliken Net Atomic Charges

     Atom                 Charge (a.u.)    Spin (a.u.)
  --------------------------------------------------------
      1 C                    -0.281542       0.023701
      2 O                    -0.387554       0.010143
      3 C                    -0.235068       0.019962
      4 O                    -0.437305      -0.001461
      5 O                    -0.215874       0.799257
      6 C                     0.008398       0.040930
      7 C                    -0.085627       0.104556
      8 C                    -0.225081      -0.002168
      9 O                    -0.436966       0.000736
     10 O                    -0.433413       0.005694
     11 H                     0.251863      -0.002059
     12 H                     0.220099       0.000896
     13 H                     0.329539      -0.000546
     14 H                     0.374580       0.000392
     15 H                     0.300934       0.000378
     16 H                     0.282775       0.000537
     17 H                     0.296585      -0.000942
     18 H                     0.336015      -0.000124
     19 H                     0.337643       0.000119
  --------------------------------------------------------
  Sum of atomic charges =    -0.000000

                    Cartesian Multipole Moments
 -----------------------------------------------------------------
    Charge (ESU x 10^10)
                -0.0000
    Dipole Moment (Debye)
         X      -3.5010      Y       0.8271      Z      -0.6806
       Tot       3.6612
    Quadrupole Moments (Debye-Ang)
        XX     -85.1999     XY       5.9449     YY     -69.9237
        XZ     -12.3320     YZ      -0.2234     ZZ     -50.1922

 Total job time:  1799.57s(wall), 25880.86s(cpu)
        *  Thank you very much for using Q-Chem.  Have a nice day.  *
