 Q-Chem 5.4, Q-Chem, Inc., Pleasanton, CA (2021)
 Q-Chem 5.4.1 for Intel X86 EM64T Linux

User input:
--------------------------------------------------------------
$molecule
0 2
C         2.6192240219   -1.0828698462   -1.0845610211
O         1.5789866220   -0.1353766305   -1.1236480128
C         3.5594848015   -0.6406387994    0.0585635369
O         2.8893700751   -0.8942108285    1.2507033886
C         3.9906051896    0.7894153515   -0.0955170335
C         5.1967945156    1.1941591900    1.4441235199
O         4.4366924953    0.9794321718    2.4169628352
H         3.1665877112   -1.1208446857   -2.0289510291
H         1.0350180870   -0.3477769984   -1.9005740480
H         3.2185340774    1.5311674601    0.0880547472
H         4.6605576911    1.0093018126   -0.9228886025
H         5.9315169578    0.4526635111    1.0994447192
O         2.1471535869   -2.3838632855   -0.8487177605
H         1.7642894012   -2.3750468571    0.0478517429
O         4.6934468164   -1.5358944415    0.1015615685
O         5.4369662604   -1.3948293333   -1.1184797677
H         3.3686610582   -0.3946989313    1.9510580586
H         6.1908938688   -0.8469165251   -0.8280441568
O         5.6172368807    2.4537194265    1.1390635468
H         5.0400048819    3.0736853390    1.6254962683
$end

$rem
BASIS = 6-311++G(2df,2p)
GUI = 2
JOB_TYPE = Frequency
METHOD = wB97M-V
SCF_ALGORITHM = DIIS_GDM
MAX_SCF_CYCLES = 400
SCF_CONVERGENCE = 6
THRESH = 11
solvent_method = SMD
$end

--------------------------------------------------------------

   17    -684.3160221509      9.35e-07  Convergence criterion met
 Total energy in the final basis set =     -684.3083191189
   15    -684.3160235716      7.52e-07  Convergence criterion met
 Total energy in the final basis set =     -684.3083254171
   15    -684.3160188310      7.62e-07  Convergence criterion met
 Total energy in the final basis set =     -684.3083106552
   15    -684.3160190227      7.56e-07  Convergence criterion met
 Total energy in the final basis set =     -684.3083189915
   15    -684.3160237754      7.53e-07  Convergence criterion met
 Total energy in the final basis set =     -684.3083171851
   15    -684.3160169238      7.56e-07  Convergence criterion met
 Total energy in the final basis set =     -684.3083137585
   15    -684.3160251255      7.58e-07  Convergence criterion met
 Total energy in the final basis set =     -684.3083222134
   15    -684.3160180514      7.55e-07  Convergence criterion met
 Frequency:      -378.80                  84.91                  89.47
 Force Cnst:      0.8617                 0.0283                 0.0367
 Red. Mass:      10.1931                 6.6622                 7.7756
 IR Intens:       99.374                  0.550                  0.789
 Frequency:       115.64                 147.09                 173.20
 Force Cnst:      0.0509                 0.0762                 0.1074
 Red. Mass:       6.4662                 5.9786                 6.0761
 IR Intens:        0.527                 10.209                  4.571
 Frequency:       236.80                 242.67                 284.15
 Force Cnst:      0.2548                 0.2267                 0.2911
 Red. Mass:       7.7112                 6.5350                 6.1181
 IR Intens:       11.788                  9.212                  4.242
 Frequency:       309.20                 335.82                 371.17
 Force Cnst:      0.2591                 0.3063                 0.2590
 Red. Mass:       4.6000                 4.6095                 3.1911
 IR Intens:        3.918                 49.063                  3.155
 Frequency:       425.40                 442.29                 478.34
 Force Cnst:      0.2264                 0.1445                 0.1592
 Red. Mass:       2.1230                 1.2538                 1.1809
 IR Intens:       59.450                164.711                 25.573
 Frequency:       489.24                 506.06                 537.20
 Force Cnst:      0.2147                 0.5148                 0.6035
 Red. Mass:       1.5224                 3.4118                 3.5497
 IR Intens:      213.169                 90.226                 92.453
 Frequency:       578.36                 597.93                 630.35
 Force Cnst:      0.3114                 0.6827                 0.7046
 Red. Mass:       1.5799                 3.2410                 3.0096
 IR Intens:      170.182                262.381                 86.868
 Frequency:       666.56                 698.91                 738.24
 Force Cnst:      0.3265                 0.6894                 0.4555
 Red. Mass:       1.2473                 2.3954                 1.4185
 IR Intens:      249.483                 49.212                 15.687
 Frequency:       816.76                 932.61                 961.58
 Force Cnst:      1.5653                 0.9682                 0.9645
 Red. Mass:       3.9826                 1.8893                 1.7704
 IR Intens:       69.527                102.069                228.229
 Frequency:       997.51                1008.79                1084.66
 Force Cnst:      2.5974                 2.0573                 1.5859
 Red. Mass:       4.4305                 3.4312                 2.2879
 IR Intens:       76.966                151.396                124.891
 Frequency:      1122.21                1140.90                1184.00
 Force Cnst:      1.4848                 1.2319                 1.8970
 Red. Mass:       2.0012                 1.6063                 2.2968
 IR Intens:      182.750                119.472                164.288
 Frequency:      1234.08                1274.13                1295.81
 Force Cnst:      1.4428                 3.1497                 1.4812
 Red. Mass:       1.6080                 3.2929                 1.4972
 IR Intens:       99.626                200.387                  9.708
 Frequency:      1308.40                1335.18                1341.13
 Force Cnst:      2.5171                 1.6879                 1.6552
 Red. Mass:       2.4956                 1.6070                 1.5619
 IR Intens:      267.866                 79.390                 63.734
 Frequency:      1413.74                1437.30                1448.72
 Force Cnst:      1.4778                 1.5778                 1.5843
 Red. Mass:       1.2550                 1.2963                 1.2812
 IR Intens:      119.312                 18.188                307.755
 Frequency:      1465.04                1477.53                1519.38
 Force Cnst:      1.4733                 1.9805                 3.4715
 Red. Mass:       1.1651                 1.5397                 2.5523
 IR Intens:      160.763                 57.236                179.069
 Frequency:      3025.43                3092.06                3113.56
 Force Cnst:      5.8506                 6.1301                 6.0214
 Red. Mass:       1.0849                 1.0882                 1.0542
 IR Intens:       12.877                 25.057                  2.790
 Frequency:      3212.19                3435.83                3656.91
 Force Cnst:      6.7881                 7.4246                 8.3867
 Red. Mass:       1.1166                 1.0675                 1.0644
 IR Intens:        0.399                606.288                176.818
 Frequency:      3664.40                3671.14                3720.00
 Force Cnst:      8.4542                 8.4582                 8.6953
 Red. Mass:       1.0686                 1.0652                 1.0665
 IR Intens:      136.365                126.904                153.846

 STANDARD THERMODYNAMIC QUANTITIES AT   298.15 K  AND     1.00 ATM

   This Molecule has  1 Imaginary Frequencies
   Zero point vibrational energy:       93.737 kcal/mol

   Atom    1 Element C  Has Mass   12.00000
   Atom    2 Element O  Has Mass   15.99491
   Atom    3 Element C  Has Mass   12.00000
   Atom    4 Element O  Has Mass   15.99491
   Atom    5 Element C  Has Mass   12.00000
   Atom    6 Element C  Has Mass   12.00000
   Atom    7 Element O  Has Mass   15.99491
   Atom    8 Element H  Has Mass    1.00783
   Atom    9 Element H  Has Mass    1.00783
   Atom   10 Element H  Has Mass    1.00783
   Atom   11 Element H  Has Mass    1.00783
   Atom   12 Element H  Has Mass    1.00783
   Atom   13 Element O  Has Mass   15.99491
   Atom   14 Element H  Has Mass    1.00783
   Atom   15 Element O  Has Mass   15.99491
   Atom   16 Element O  Has Mass   15.99491
   Atom   17 Element H  Has Mass    1.00783
   Atom   18 Element H  Has Mass    1.00783
   Atom   19 Element O  Has Mass   15.99491
   Atom   20 Element H  Has Mass    1.00783
   Molecular Mass:   169.034840 amu
   Principal axes and moments of inertia in amu*Bohr^2:
                             1           2           3
    Eigenvalues --     1057.89479  2546.58561  2803.40399
          X               0.56552     0.82428    -0.02739
          Y               0.65614    -0.46979    -0.59057
          Z               0.49966    -0.31601     0.80652
   Rotational Symmetry Number is   1
   The Molecule is an Asymmetric Top
   Translational Enthalpy:        0.889 kcal/mol
   Rotational Enthalpy:           0.889 kcal/mol
   Vibrational Enthalpy:         99.218 kcal/mol
   gas constant (RT):             0.592 kcal/mol
   Translational Entropy:        41.283  cal/mol.K
   Rotational Entropy:           30.402  cal/mol.K
   Vibrational Entropy:          32.171  cal/mol.K

   Total Enthalpy:              101.588 kcal/mol
   Total Entropy:               103.856  cal/mol.K
 Total job time:  25036.13s(wall), 351912.51s(cpu)
        *  Thank you very much for using Q-Chem.  Have a nice day.  *
 Q-Chem 5.4, Q-Chem, Inc., Pleasanton, CA (2021)
 Q-Chem 5.4.1 for Intel X86 EM64T Linux

User input:
--------------------------------------------------------------

$rem
JOBTYPE = ts
SCF_GUESS = read
GEOM_OPT_HESSIAN = read
MAX_SCF_CYCLES = 350
GEOM_OPT_DMAX = 60
GEOM_OPT_MAX_CYCLES = 250
METHOD = wB97M-v
BASIS = 6-311++G(2df,2p)
SCF_CONVERGENCE = 7
THRESH = 12
SCF_ALGORITHM = DIIS_GDM
solvent_method = SMD
$end

$molecule
read
$end
--------------------------------------------------------------

   18    -684.3166036292      7.82e-08  Convergence criterion met
 Total energy in the final basis set =     -684.3088892649
   19    -684.3167901943      3.26e-08  Convergence criterion met
 Total energy in the final basis set =     -684.3090595310
   18    -684.3168250483      9.63e-08  Convergence criterion met
 Total energy in the final basis set =     -684.3090902974
   18    -684.3168347759      8.91e-08  Convergence criterion met
 Total energy in the final basis set =     -684.3090998317
   18    -684.3168385978      8.57e-08  Convergence criterion met
 Total energy in the final basis set =     -684.3091042660
   18    -684.3168388983      9.49e-08  Convergence criterion met
 Total energy in the final basis set =     -684.3091055351

             Standard Nuclear Orientation (Angstroms)
    I     Atom           X                Y                Z
 ----------------------------------------------------------------
    1      C       2.6231377974    -1.0749310166    -1.0732322017
    2      O       1.5751697097    -0.1383323683    -1.1110906358
    3      C       3.5545920479    -0.6470178739     0.0822855238
    4      O       2.8858486751    -0.8954320805     1.2725717082
    5      C       3.9852606479     0.7787340239    -0.0786859592
    6      C       5.2147155840     1.2108000316     1.4068669918
    7      O       4.5235571974     0.9441438734     2.4124239693
    8      H       3.1770790867    -1.0830908578    -2.0085729342
    9      H       1.0830233313    -0.2758552166    -1.9288304904
   10      H       3.2223019757     1.5174459746     0.1243096123
   11      H       4.6348936208     0.9958510411    -0.9165660768
   12      H       5.9684989212     0.5158606538     1.0207259338
   13      O       2.1544949818    -2.3823976414    -0.8781272473
   14      H       1.7369644519    -2.4254864285    -0.0070445639
   15      O       4.6817450998    -1.5474438611     0.1295299016
   16      O       5.4280151311    -1.4390130281    -1.0807568555
   17      H       3.3486433383    -0.3980332378     1.9726785560
   18      H       6.1916006958    -0.9077605524    -0.8099446221
   19      O       5.5598976296     2.4952679669     1.1129805985
   20      H       4.9925850767     3.0872676978     1.6299812917
 ----------------------------------------------------------------

   19    -684.3168390483      4.02e-08  Convergence criterion met
 Total energy in the final basis set =     -684.3091060309
 Final energy is   -684.309106030852
 **  OPTIMIZATION CONVERGED  **

                    Orbital Energies (a.u.)
 --------------------------------------------------------------

 Alpha MOs
 -- Occupied --
-19.4078 -19.4003 -19.3730 -19.3566 -19.3506 -19.3497 -19.3421 -10.4851
-10.4718 -10.4534 -10.3846  -1.2819  -1.2344  -1.2146  -1.1848  -1.1494
 -1.1404  -1.0416  -0.9023  -0.8261  -0.7721  -0.7384  -0.6947  -0.6577
 -0.6517  -0.6289  -0.6161  -0.6143  -0.5927  -0.5818  -0.5688  -0.5634
 -0.5354  -0.5193  -0.5125  -0.4872  -0.4651  -0.4524  -0.4509  -0.4357
 -0.4184  -0.4161  -0.4060  -0.3988  -0.3320

 Beta MOs
 -- Occupied --
-19.4076 -19.4003 -19.3717 -19.3565 -19.3505 -19.3494 -19.3340 -10.4857
-10.4722 -10.4526 -10.3748  -1.2815  -1.2285  -1.2140  -1.1843  -1.1401
 -1.1384  -1.0411  -0.8909  -0.8157  -0.7647  -0.7357  -0.6935  -0.6567
 -0.6466  -0.6228  -0.6109  -0.6079  -0.5854  -0.5797  -0.5638  -0.5483
 -0.5335  -0.5132  -0.5050  -0.4847  -0.4635  -0.4493  -0.4352  -0.4227
 -0.4160  -0.4086  -0.3989  -0.3935

          Ground-State Mulliken Net Atomic Charges

     Atom                 Charge (a.u.)    Spin (a.u.)
  --------------------------------------------------------
      1 C                    -0.195331       0.018753
      2 O                    -0.416441       0.002651
      3 C                     0.257721       0.004501
      4 O                    -0.402250       0.004125
      5 C                    -0.544452       0.580033
      6 C                    -0.030995       0.027856
      7 O                    -0.433649       0.287690
      8 H                     0.302036       0.001193
      9 H                     0.338934      -0.000770
     10 H                     0.334146      -0.010099
     11 H                     0.315977      -0.010264
     12 H                     0.316404       0.038782
     13 O                    -0.448984       0.008009
     14 H                     0.354381      -0.000404
     15 O                    -0.156901       0.005680
     16 O                    -0.288089       0.001083
     17 H                     0.328965      -0.001443
     18 H                     0.335353      -0.000549
     19 O                    -0.320945       0.044881
     20 H                     0.354119      -0.001708
  --------------------------------------------------------
  Sum of atomic charges =     0.000000

                    Cartesian Multipole Moments
 -----------------------------------------------------------------
    Charge (ESU x 10^10)
                 0.0000
    Dipole Moment (Debye)
         X       1.6743      Y       4.9321      Z      -2.9080
       Tot       5.9654
    Quadrupole Moments (Debye-Ang)
        XX     -46.0629     XY      18.9679     YY     -71.8330
        XZ      -8.9356     YZ      -1.1630     ZZ     -66.9588

 Total job time:  2026.62s(wall), 28705.55s(cpu)
        *  Thank you very much for using Q-Chem.  Have a nice day.  *
