 Q-Chem 5.4, Q-Chem, Inc., Pleasanton, CA (2021)
 Q-Chem 5.4.1 for Intel X86 EM64T Linux

User input:
--------------------------------------------------------------
$molecule
-1 2
C    2.6554710   -1.2252720   -0.9307265
O    1.6902300   -0.3411088   -1.4612735
C    3.3074360   -0.5157342    0.2768329
O    2.5896465   -0.6611082    1.3832556
C    3.7653398    0.9009146   -0.0597398
C    4.8070741    1.4872403    0.8815013
O    4.5485582    1.2702422    2.2717131
O    3.1759383    1.5463249    2.5764538
C    5.0772018    2.9634943    0.5994921
O    3.8700340    3.6911022    0.6548035
O    6.0176764    3.4716311    1.5185914
H    3.3892281   -1.4794659   -1.6934958
H    0.9659907   -0.0686007   -0.4663851
H    2.8696436    1.5181417   -0.0681047
H    4.1848562    0.9321712   -1.0656960
H    5.7621733    0.9775553    0.7485191
H    2.7702827    0.6906078    2.2384089
H    5.5333999    3.0642184   -0.3859716
H    4.0468774    4.5786734    0.3229832
H    5.7441989    3.1787621    2.3990721
O    2.0672266   -2.4198437   -0.4845123
H    1.7896708   -2.2307820    0.4299496
O    4.5880770   -1.3598775    0.5363341
O    5.4618700   -1.3134082   -0.4250773
$end

$rem
BASIS = 6-311++G(2df,2p)
GUI = 2
JOB_TYPE = Frequency
METHOD = wB97M-V
SOLVENT_METHOD = SMD
SCF_ALGORITHM = DIIS_GDM
MAX_SCF_CYCLES = 400
SCF_CONVERGENCE = 7
THRESH = 12
$end
--------------------------------------------------------------

   23    -873.5407519046      4.24e-08  Convergence criterion met
 Total energy in the final basis set =     -873.5354203420
   20    -873.5407358289      9.61e-08  Convergence criterion met
 Total energy in the final basis set =     -873.5354083995
   20    -873.5407659936      9.51e-08  Convergence criterion met
 Total energy in the final basis set =     -873.5354300191
   20    -873.5407597598      6.96e-08  Convergence criterion met
 Total energy in the final basis set =     -873.5354325300
   20    -873.5407425609      7.12e-08  Convergence criterion met
 Total energy in the final basis set =     -873.5354061618
   20    -873.5407693917      6.76e-08  Convergence criterion met
 Total energy in the final basis set =     -873.5354377916
   20    -873.5407323435      9.38e-08  Convergence criterion met
 Total energy in the final basis set =     -873.5354007033
   20    -873.5406356549      8.84e-08  Convergence criterion met
 Total energy in the final basis set =     -873.5354227045
   20    -873.5407482748      9.45e-08  Convergence criterion met
 Total energy in the final basis set =     -873.5354166407
   20    -873.5407526463      5.72e-08  Convergence criterion met
 Total energy in the final basis set =     -873.5354210695
   20    -873.5407502340      7.19e-08  Convergence criterion met
 Total energy in the final basis set =     -873.5354186856
   20    -873.5407515291      5.77e-08  Convergence criterion met
 Total energy in the final basis set =     -873.5354199857
   20    -873.5407522012      7.64e-08  Convergence criterion met
 Total energy in the final basis set =     -873.5354206193
   20    -873.5407501278      6.67e-08  Convergence criterion met
 Total energy in the final basis set =     -873.5354185216
   20    -873.5407526873      8.03e-08  Convergence criterion met
 Total energy in the final basis set =     -873.5354211682

                    Orbital Energies (a.u.)
 --------------------------------------------------------------

 Alpha MOs
 -- Occupied --
-19.4363 -19.3994 -19.3924 -19.3659 -19.3524 -19.3412 -19.3410 -19.3353
-19.2776 -10.4406 -10.4386 -10.4332 -10.3972 -10.3365  -1.3202  -1.2523
 -1.1964  -1.1888  -1.1309  -1.1103  -1.1044  -1.0298  -0.9610  -0.8977
 -0.8305  -0.7862  -0.7259  -0.6878  -0.6811  -0.6509  -0.6397  -0.6160
 -0.6107  -0.5969  -0.5939  -0.5811  -0.5710  -0.5523  -0.5510  -0.5450
 -0.5332  -0.5069  -0.4835  -0.4798  -0.4560  -0.4534  -0.4477  -0.4321
 -0.4237  -0.4095  -0.4072  -0.4056  -0.3963  -0.3810  -0.3689  -0.3526
 -0.3417

 Beta MOs
 -- Occupied --
-19.4248 -19.3923 -19.3816 -19.3659 -19.3524 -19.3412 -19.3410 -19.3353
-19.2777 -10.4406 -10.4389 -10.4330 -10.3972 -10.3364  -1.2932  -1.2522
 -1.1964  -1.1883  -1.1309  -1.1087  -1.1043  -1.0295  -0.9285  -0.8949
 -0.8275  -0.7848  -0.7256  -0.6834  -0.6800  -0.6427  -0.6377  -0.6096
 -0.5967  -0.5881  -0.5872  -0.5730  -0.5698  -0.5501  -0.5435  -0.5331
 -0.5128  -0.4958  -0.4816  -0.4739  -0.4548  -0.4523  -0.4471  -0.4320
 -0.4206  -0.4066  -0.4050  -0.3999  -0.3938  -0.3712  -0.3455  -0.3400

          Ground-State Mulliken Net Atomic Charges

     Atom                 Charge (a.u.)    Spin (a.u.)
  --------------------------------------------------------
      1 C                    -0.170063       0.004810
      2 O                    -0.480156       0.000876
      3 C                     0.435171       0.013995
      4 O                    -0.802692      -0.003477
      5 C                    -1.164658      -0.009286
      6 C                     0.465707       0.011938
      7 O                    -0.161714       0.002226
      8 O                    -0.402206      -0.000066
      9 C                    -0.358578      -0.003731
     10 O                    -0.449713      -0.000029
     11 O                    -0.448340      -0.000082
     12 H                     0.294016      -0.000814
     13 H                     0.374512       0.000251
     14 H                     0.302937      -0.000630
     15 H                     0.303985       0.000817
     16 H                     0.293203      -0.002480
     17 H                     0.392646      -0.000058
     18 H                     0.261922      -0.000049
     19 H                     0.346480      -0.000057
     20 H                     0.342589      -0.000005
     21 O                    -0.454399       0.002262
     22 H                     0.344217      -0.000527
     23 O                     0.004893       0.353513
     24 O                    -0.269760       0.630602
  --------------------------------------------------------
  Sum of atomic charges =    -1.000000

                    Cartesian Multipole Moments
 -----------------------------------------------------------------
    Charge (ESU x 10^10)
                -4.8032
    Dipole Moment (Debye)
         X     -17.0807      Y       3.8216      Z      -5.7341
       Tot      18.4184
    Quadrupole Moments (Debye-Ang)
        XX    -156.4847     XY      11.3661     YY    -100.1936
        XZ     -27.2228     YZ     -12.6566     ZZ    -106.3894

             Standard Nuclear Orientation (Angstroms)
    I     Atom           X                Y                Z
 ----------------------------------------------------------------
    1      C       2.6554710000    -1.2252720000    -0.9307265000
    2      O       1.6902300000    -0.3411088000    -1.4612735000
    3      C       3.3074360000    -0.5157342000     0.2768329000
    4      O       2.5896465000    -0.6611082000     1.3832556000
    5      C       3.7653398000     0.9009146000    -0.0597398000
    6      C       4.8070741000     1.4872403000     0.8815013000
    7      O       4.5485582000     1.2702422000     2.2717131000
    8      O       3.1759383000     1.5463249000     2.5764538000
    9      C       5.0772018000     2.9634943000     0.5994921000
   10      O       3.8700340000     3.6911022000     0.6548035000
   11      O       6.0176764000     3.4716311000     1.5185914000
   12      H       3.3892281000    -1.4794659000    -1.6934958000
   13      H       0.9659907000    -0.0686007000    -0.4663851000
   14      H       2.8696436000     1.5181417000    -0.0681047000
   15      H       4.1848562000     0.9321712000    -1.0656960000
   16      H       5.7621733000     0.9775553000     0.7485191000
   17      H       2.7702827000     0.6906078000     2.2384089000
   18      H       5.5333999000     3.0642184000    -0.3859716000
   19      H       4.0468774000     4.5786734000     0.3229832000
   20      H       5.7441989000     3.1787621000     2.3990721000
   21      O       2.0672266000    -2.4198437000    -0.4845123000
   22      H       1.7896708000    -2.2307820000     0.4299496000
   23      O       4.5880770000    -1.3598775000     0.5363341000
   24      O       5.4618700000    -1.3134082000    -0.4250773000
 ----------------------------------------------------------------

 Frequency:        55.77                  68.60                  91.83
 Force Cnst:      0.0152                 0.0251                 0.0357
 Red. Mass:       8.2868                 9.0716                 7.1954
 IR Intens:        0.742                  0.583                  0.823
 Frequency:       105.85                 121.04                 153.18
 Force Cnst:      0.0672                 0.0520                 0.0877
 Red. Mass:      10.1844                 6.0248                 6.3446
 IR Intens:        0.994                  0.427                  4.565
 Frequency:       197.94                 209.88                 220.78
 Force Cnst:      0.1473                 0.1623                 0.2470
 Red. Mass:       6.3789                 6.2539                 8.5991
 IR Intens:        4.230                 16.861                  5.487
 Frequency:       250.28                 267.45                 294.84
 Force Cnst:      0.1184                 0.0851                 0.1495
 Red. Mass:       3.2072                 2.0181                 2.9184
 IR Intens:       37.456                 90.782                129.770
 Frequency:       302.18                 305.61                 343.75
 Force Cnst:      0.2092                 0.3036                 0.3840
 Red. Mass:       3.8892                 5.5168                 5.5156
 IR Intens:       69.802                 19.285                107.555
 Frequency:       381.31                 403.57                 422.80
 Force Cnst:      0.2185                 0.1751                 0.2463
 Red. Mass:       2.5508                 1.8244                 2.3384
 IR Intens:       76.723                 83.628                130.051
 Frequency:       437.87                 509.17                 523.82
 Force Cnst:      0.5734                 0.2217                 0.7138
 Red. Mass:       5.0758                 1.4512                 4.4153
 IR Intens:       45.214                108.448                 47.142
 Frequency:       547.17                 598.29                 618.90
 Force Cnst:      1.0119                 1.1180                 0.7739
 Red. Mass:       5.7363                 5.3013                 3.4290
 IR Intens:      150.462                 60.853                 23.405
 Frequency:       690.82                 758.43                 803.60
 Force Cnst:      1.7257                 1.0180                 1.8535
 Red. Mass:       6.1374                 3.0037                 4.8715
 IR Intens:      109.847                 58.842                 88.631
 Frequency:       833.06                 866.85                 883.94
 Force Cnst:      1.6162                 0.5188                 1.9802
 Red. Mass:       3.9528                 1.1718                 4.3015
 IR Intens:       14.355                196.200                121.666
 Frequency:       897.99                 940.94                 972.12
 Force Cnst:      0.5358                 1.4275                 2.0442
 Red. Mass:       1.1278                 2.7366                 3.6715
 IR Intens:      145.737                 89.804                 19.489
 Frequency:      1050.41                1114.30                1130.28
 Force Cnst:      1.9758                 3.0084                 1.8953
 Red. Mass:       3.0393                 4.1122                 2.5180
 IR Intens:       45.263                 80.198                 23.268
 Frequency:      1174.34                1197.83                1204.90
 Force Cnst:      1.2563                 1.3976                 1.0620
 Red. Mass:       1.5462                 1.6533                 1.2416
 IR Intens:       82.587                208.708                 45.165
 Frequency:      1211.45                1228.97                1237.04
 Force Cnst:      1.0527                 1.9002                 1.4885
 Red. Mass:       1.2174                 2.1354                 1.6509
 IR Intens:      293.084                242.883                109.361
 Frequency:      1255.98                1287.90                1299.57
 Force Cnst:      1.8432                 9.5548                 2.1690
 Red. Mass:       1.9832                 9.7770                 2.1797
 IR Intens:      181.873                  9.561                259.685
 Frequency:      1309.69                1324.72                1336.28
 Force Cnst:      2.3243                 2.6595                 1.9411
 Red. Mass:       2.2999                 2.5722                 1.8450
 IR Intens:        4.172                260.273                 64.934
 Frequency:      1349.89                1384.41                1390.63
 Force Cnst:      1.6727                 1.5685                 1.7512
 Red. Mass:       1.5580                 1.3890                 1.5370
 IR Intens:       18.011                 40.044                 68.859
 Frequency:      1425.72                1429.88                1442.31
 Force Cnst:      1.7483                 1.6023                 1.3409
 Red. Mass:       1.4598                 1.3301                 1.0940
 IR Intens:      158.188                 72.380                  8.049
 Frequency:      1478.09                1520.56                1555.29
 Force Cnst:      2.3745                 1.7100                 1.5852
 Red. Mass:       1.8447                 1.2553                 1.1123
 IR Intens:      107.114                254.219                131.703
 Frequency:      2963.83                3087.98                3091.38
 Force Cnst:      5.5724                 6.0192                 6.0780
 Red. Mass:       1.0767                 1.0714                 1.0795
 IR Intens:     1719.828                  5.207                 38.371
 Frequency:      3099.04                3128.58                3142.17
 Force Cnst:      6.1433                 6.2797                 6.3910
 Red. Mass:       1.0857                 1.0889                 1.0987
 IR Intens:       28.560                 15.028                 12.786
 Frequency:      3630.44                3765.46                3821.33
 Force Cnst:      8.2660                 8.9016                 9.1773
 Red. Mass:       1.0645                 1.0656                 1.0667
 IR Intens:      226.407                134.191                125.196

 STANDARD THERMODYNAMIC QUANTITIES AT   298.15 K  AND     1.00 ATM

   This Molecule has  0 Imaginary Frequencies
   Zero point vibrational energy:      108.862 kcal/mol

   Atom    1 Element C  Has Mass   12.00000
   Atom    2 Element O  Has Mass   15.99491
   Atom    3 Element C  Has Mass   12.00000
   Atom    4 Element O  Has Mass   15.99491
   Atom    5 Element C  Has Mass   12.00000
   Atom    6 Element C  Has Mass   12.00000
   Atom    7 Element O  Has Mass   15.99491
   Atom    8 Element O  Has Mass   15.99491
   Atom    9 Element C  Has Mass   12.00000
   Atom   10 Element O  Has Mass   15.99491
   Atom   11 Element O  Has Mass   15.99491
   Atom   12 Element H  Has Mass    1.00783
   Atom   13 Element H  Has Mass    1.00783
   Atom   14 Element H  Has Mass    1.00783
   Atom   15 Element H  Has Mass    1.00783
   Atom   16 Element H  Has Mass    1.00783
   Atom   17 Element H  Has Mass    1.00783
   Atom   18 Element H  Has Mass    1.00783
   Atom   19 Element H  Has Mass    1.00783
   Atom   20 Element H  Has Mass    1.00783
   Atom   21 Element O  Has Mass   15.99491
   Atom   22 Element H  Has Mass    1.00783
   Atom   23 Element O  Has Mass   15.99491
   Atom   24 Element O  Has Mass   15.99491
   Molecular Mass:   214.032490 amu
   Principal axes and moments of inertia in amu*Bohr^2:
                             1           2           3
    Eigenvalues --     1520.29228  4286.49248  4466.63997
          X               0.41116     0.88064    -0.23541
          Y               0.84403    -0.46533    -0.26662
          Z               0.34434     0.08907     0.93461
   Rotational Symmetry Number is   1
   The Molecule is an Asymmetric Top
   Translational Enthalpy:        0.889 kcal/mol
   Rotational Enthalpy:           0.889 kcal/mol
   Vibrational Enthalpy:        116.188 kcal/mol
   gas constant (RT):             0.592 kcal/mol
   Translational Entropy:        41.986  cal/mol.K
   Rotational Entropy:           31.743  cal/mol.K
   Vibrational Entropy:          45.107  cal/mol.K

   Total Enthalpy:              118.558 kcal/mol
   Total Entropy:               118.836  cal/mol.K
 Total job time:  140583.38s(wall), 1251862.48s(cpu)
        *  Thank you very much for using Q-Chem.  Have a nice day.  *
