 Q-Chem 5.4, Q-Chem, Inc., Pleasanton, CA (2021)
 Q-Chem 5.4.1 for Intel X86 EM64T Linux

User input:
--------------------------------------------------------------
$molecule
-1 2
C         2.6100661323   -1.2247868463   -0.8973383093
O         1.5698992717   -0.4101798202   -1.4026618774
C         3.2890053585   -0.4950902489    0.2812202655
O         2.5415713866   -0.6060755271    1.3707465420
C         3.7738374506    0.9090198967   -0.0914812659
C         4.8253412171    1.4898873455    0.8482606637
O         4.5682577516    1.2479168854    2.2376842514
O         3.1966300112    1.5766639311    2.5396993252
C         5.0935164046    2.9779815336    0.6122170372
O         3.8708343645    3.6836485370    0.6398248748
O         5.9891379143    3.4580584150    1.5891874177
H         3.2864781770   -1.4178216595   -1.7314906315
H         1.0488119146   -0.1366678597   -0.6254243327
H         2.8907186127    1.5515858864   -0.1181318953
H         4.2011418291    0.9066136830   -1.1002104568
H         5.7828590927    0.9775645189    0.7044249310
H         2.7724703256    0.7164836365    2.1960586532
H         5.5938699619    3.1155347595   -0.3529718228
H         4.0789996413    4.6052180813    0.4130843855
H         5.6670729809    3.0885999799    2.4330113328
O         2.1206295763   -2.4497390263   -0.4112206091
H         1.9155232696   -2.2300203581    0.5267855537
O         4.5693780712   -1.3429681966    0.5653476843
O         5.4220505843   -1.3355492475   -0.4296936172
$end

$rem
BASIS = 6-311++G(2df,2p)
GUI = 2
JOB_TYPE = Optimization
METHOD = wB97M-V
SCF_ALGORITHM = DIIS_GDM
MAX_SCF_CYCLES = 400
GEOM_OPT_MAX_CYCLES = 150
SCF_CONVERGENCE = 7
THRESH = 12
Solvent_method = SMD
$end
--------------------------------------------------------------

   22    -873.5830980973      5.06e-08  Convergence criterion met
 Total energy in the final basis set =     -873.5779853912
   20    -873.5791022248      9.54e-08  Convergence criterion met
 Total energy in the final basis set =     -873.5740263387
   21    -873.5795583038      6.32e-08  Convergence criterion met
 Total energy in the final basis set =     -873.5741201241
   21    -873.5821023537      2.91e-08  Convergence criterion met
 Total energy in the final basis set =     -873.5768903022
   20    -873.5816089155      9.93e-08  Convergence criterion met
 Total energy in the final basis set =     -873.5763406730
   21    -873.5822700739      4.79e-08  Convergence criterion met
 Total energy in the final basis set =     -873.5769361416
   21    -873.5841250330      4.89e-08  Convergence criterion met
 Total energy in the final basis set =     -873.5788622765
   20    -873.5841937093      4.85e-08  Convergence criterion met
   20    -873.5845277806      6.36e-08  Convergence criterion met
 Total energy in the final basis set =     -873.5792731098
   20    -873.5845626802      7.05e-08  Convergence criterion met
 Total energy in the final basis set =     -873.5793069075
   21    -873.5845313452      5.69e-08  Convergence criterion met
 Total energy in the final basis set =     -873.5792735771
   20    -873.5845828715      8.60e-08  Convergence criterion met
 Total energy in the final basis set =     -873.5793328056
   21    -873.5845901622      4.50e-08  Convergence criterion met
 Total energy in the final basis set =     -873.5793390260
   20    -873.5845925056      4.01e-08  Convergence criterion met
 Total energy in the final basis set =     -873.5793403626

             Standard Nuclear Orientation (Angstroms)
    I     Atom           X                Y                Z
 ----------------------------------------------------------------
    1      C       2.6153777469    -1.2021897889    -0.9010718719
    2      O       1.5793010802    -0.3900129122    -1.4097044090
    3      C       3.2896070842    -0.5000782702     0.2958596035
    4      O       2.5714320860    -0.6327550514     1.3972812541
    5      C       3.7661795681     0.9083289642    -0.0531151220
    6      C       4.8090053241     1.4908468783     0.8893190495
    7      O       4.5431018090     1.2794334023     2.2791787912
    8      O       3.1658781375     1.5469967426     2.5738452189
    9      C       5.0900010742     2.9646242234     0.6062356259
   10      O       3.8883950832     3.7012468442     0.6653447267
   11      O       6.0362078227     3.4656967648     1.5234480440
   12      H       3.3039622442    -1.3714037358    -1.7241804829
   13      H       1.0271938385    -0.1116728860    -0.6664442701
   14      H       2.8792775062     1.5379223506    -0.0736411873
   15      H       4.1925009972     0.9227791960    -1.0568393410
   16      H       5.7607852129     0.9739360696     0.7595458075
   17      H       2.7649071325     0.6853475129     2.2213379384
   18      H       5.5446959676     3.0626205533    -0.3802646399
   19      H       4.0726451321     4.5895614634     0.3394763833
   20      H       5.7609350471     3.1752548605     2.4042222537
   21      O       2.1255112072    -2.4451015372    -0.4654621957
   22      H       1.8861824242    -2.3008309375     0.4671567469
   23      O       4.5764522375    -1.3581412183     0.5436722183
   24      O       5.4285655368    -1.3365311891    -0.4382720421
 ----------------------------------------------------------------

   20    -873.5845916602      8.73e-08  Convergence criterion met
 Total energy in the final basis set =     -873.5793407375
 Final energy is   -873.579340737494
 **  OPTIMIZATION CONVERGED  **

                    Orbital Energies (a.u.)
 --------------------------------------------------------------

 Alpha MOs
 -- Occupied --
-19.4367 -19.3998 -19.3915 -19.3634 -19.3416 -19.3412 -19.3410 -19.3367
-19.2786 -10.4413 -10.4406 -10.4354 -10.3974 -10.3375  -1.3199  -1.2505
 -1.2001  -1.1964  -1.1312  -1.1308  -1.1137  -1.0277  -0.9606  -0.8986
 -0.8362  -0.7932  -0.7300  -0.6938  -0.6818  -0.6511  -0.6396  -0.6312
 -0.6144  -0.6046  -0.5963  -0.5812  -0.5729  -0.5566  -0.5534  -0.5456
 -0.5335  -0.5127  -0.4859  -0.4827  -0.4621  -0.4537  -0.4479  -0.4329
 -0.4303  -0.4120  -0.4102  -0.4057  -0.3987  -0.3817  -0.3678  -0.3525
 -0.3438

 Beta MOs
 -- Occupied --
-19.4252 -19.3915 -19.3820 -19.3634 -19.3415 -19.3412 -19.3410 -19.3366
-19.2788 -10.4416 -10.4406 -10.4352 -10.3974 -10.3374  -1.2929  -1.2504
 -1.1996  -1.1964  -1.1310  -1.1307  -1.1124  -1.0275  -0.9282  -0.8953
 -0.8333  -0.7925  -0.7292  -0.6896  -0.6807  -0.6435  -0.6380  -0.6283
 -0.6034  -0.5942  -0.5872  -0.5728  -0.5709  -0.5513  -0.5448  -0.5333
 -0.5197  -0.4983  -0.4818  -0.4786  -0.4608  -0.4524  -0.4472  -0.4325
 -0.4283  -0.4083  -0.4055  -0.4047  -0.3954  -0.3698  -0.3463  -0.3406

          Ground-State Mulliken Net Atomic Charges

     Atom                 Charge (a.u.)    Spin (a.u.)
  --------------------------------------------------------
      1 C                    -0.179245       0.003612
      2 O                    -0.422510       0.000524
      3 C                     0.447116       0.015741
      4 O                    -0.799687      -0.003899
      5 C                    -1.194270      -0.010197
      6 C                     0.462651       0.010704
      7 O                    -0.166593       0.002324
      8 O                    -0.414359      -0.000143
      9 C                    -0.364389      -0.003683
     10 O                    -0.450103      -0.000051
     11 O                    -0.448131      -0.000078
     12 H                     0.302227      -0.000656
     13 H                     0.333512       0.000027
     14 H                     0.310568      -0.000685
     15 H                     0.300057       0.001006
     16 H                     0.293274      -0.002620
     17 H                     0.405710      -0.000013
     18 H                     0.261945      -0.000040
     19 H                     0.346392      -0.000053
     20 H                     0.342295      -0.000006
     21 O                    -0.448777       0.002665
     22 H                     0.344082      -0.000806
     23 O                     0.008709       0.353563
     24 O                    -0.270475       0.632764
  --------------------------------------------------------
  Sum of atomic charges =    -1.000000

                    Cartesian Multipole Moments
 -----------------------------------------------------------------
    Charge (ESU x 10^10)
                -4.8032
    Dipole Moment (Debye)
         X     -16.7827      Y       3.7621      Z      -6.1480
       Tot      18.2650
    Quadrupole Moments (Debye-Ang)
        XX    -155.3790     XY      11.4753     YY     -99.8754
        XZ     -27.6157     YZ     -13.5165     ZZ    -106.0365

 Total job time:  5445.45s(wall), 116932.09s(cpu)
        *  Thank you very much for using Q-Chem.  Have a nice day.  *
