 Q-Chem 5.4, Q-Chem, Inc., Pleasanton, CA (2021)
 Q-Chem 5.4.1 for Intel X86 EM64T Linux

User input:
--------------------------------------------------------------
$molecule
0 2
C         0.8750341572    0.1398017542    0.0589428138
C         2.3307329501    0.5100687137    0.0995547142
O         3.0731423174   -0.3375126766    0.9801461585
C        -0.0884852070    0.9978685499    0.4489008100
C        -1.5035650046    0.6536260040    0.3008952774
O        -2.4185522915    1.2842425303    1.1758435038
C        -1.8320908149   -0.7147270774    0.0037405118
C        -0.7855171009   -1.6140853290   -0.3360126144
C         0.5028669495   -1.1888143870   -0.3456627760
H         2.7836411094    0.3809107117   -0.8825546724
H         2.4390991565    1.5561314833    0.3908422196
H         2.7266904452   -0.2108095967    1.8703023630
H         0.1499498025    1.9963929533    0.7958268361
H        -1.7237399056    1.0760053513   -0.8023852395
H        -2.4332322982    2.2267458659    0.9752590297
H        -2.7900070868   -1.0988164497    0.3203615313
H        -1.0297184281   -2.6420891957   -0.5629854124
H         1.2913900386   -1.8811817589   -0.6133575548
O        -2.4315257853    0.8144961722   -2.1357417664
O        -2.6800238034   -0.3998328188   -1.8720148334
$end

$rem
BASIS = 6-311++G(2df,2p)
GUI = 2
JOB_TYPE = Frequency
METHOD = wB97M-V
SOLVENT_METHOD = SMD
SCF_ALGORITHM = DIIS_GDM
MAX_SCF_CYCLES = 400
SCF_CONVERGENCE = 7
THRESH = 12
UNRESTRICTED = 1
SYMMETRY_IGNORE = 1
$end
--------------------------------------------------------------

   25    -572.8675264315      5.12e-08  Convergence criterion met
 Total energy in the final basis set =     -572.8623133783
   23    -572.8675252756      7.03e-08  Convergence criterion met
 Total energy in the final basis set =     -572.8623121249
   23    -572.8675250756      7.07e-08  Convergence criterion met
 Total energy in the final basis set =     -572.8623121168
   23    -572.8675252357      6.92e-08  Convergence criterion met
 Total energy in the final basis set =     -572.8623122791
   23    -572.8675254420      7.24e-08  Convergence criterion met
 Total energy in the final basis set =     -572.8623122904
   23    -572.8675261885      6.92e-08  Convergence criterion met
 Total energy in the final basis set =     -572.8623129732
   23    -572.8675258771      7.09e-08  Convergence criterion met
 Total energy in the final basis set =     -572.8623129857
   23    -572.8675271907      6.99e-08  Convergence criterion met
 Total energy in the final basis set =     -572.8623132185
   23    -572.8675263644      7.01e-08  Convergence criterion met
 Total energy in the final basis set =     -572.8623132396
   23    -572.8675262841      6.82e-08  Convergence criterion met
 Total energy in the final basis set =     -572.8623133044
   23    -572.8675264012      7.61e-08  Convergence criterion met
 Total energy in the final basis set =     -572.8623132747
   23    -572.8675256275      7.02e-08  Convergence criterion met
 Total energy in the final basis set =     -572.8623124331
   23    -572.8675253244      6.69e-08  Convergence criterion met
 Total energy in the final basis set =     -572.8623124123
   23    -572.8675262432      7.23e-08  Convergence criterion met
 Total energy in the final basis set =     -572.8623132482
   23    -572.8675263786      7.00e-08  Convergence criterion met
 Total energy in the final basis set =     -572.8623132671

                    Orbital Energies (a.u.)
 --------------------------------------------------------------

 Alpha MOs
 -- Occupied --
-19.4198 -19.4149 -19.3495 -19.3385 -10.4063 -10.3951 -10.3878 -10.3644
-10.3612 -10.3561 -10.3522  -1.3290  -1.1715  -1.1556  -0.9961  -0.9280
 -0.9008  -0.8792  -0.8054  -0.7438  -0.7165  -0.6640  -0.6469  -0.6215
 -0.6058  -0.5947  -0.5905  -0.5867  -0.5529  -0.5512  -0.5348  -0.5290
 -0.4927  -0.4788  -0.4549  -0.4451  -0.4399  -0.4018  -0.3894  -0.3723
 -0.3540  -0.3246

 Beta MOs
 -- Occupied --
-19.4033 -19.3992 -19.3495 -19.3385 -10.4062 -10.3958 -10.3878 -10.3649
-10.3615 -10.3559 -10.3518  -1.2980  -1.1716  -1.1555  -0.9964  -0.9096
 -0.8823  -0.8729  -0.8052  -0.7439  -0.7165  -0.6611  -0.6437  -0.6205
 -0.5912  -0.5897  -0.5710  -0.5515  -0.5466  -0.5367  -0.5280  -0.5126
 -0.4890  -0.4778  -0.4547  -0.4449  -0.4388  -0.3979  -0.3877  -0.3494
 -0.3104

          Ground-State Mulliken Net Atomic Charges

     Atom                 Charge (a.u.)    Spin (a.u.)
  --------------------------------------------------------
      1 C                     0.512326       0.009436
      2 C                    -0.548846      -0.000076
      3 O                    -0.395332       0.000217
      4 C                    -0.451325      -0.020539
      5 C                    -0.440602       0.003235
      6 O                    -0.439123      -0.000518
      7 C                    -0.161580      -0.045022
      8 C                    -0.291548       0.013551
      9 C                    -0.170672      -0.031161
     10 H                     0.216898       0.000279
     11 H                     0.228305       0.000071
     12 H                     0.329481      -0.000070
     13 H                     0.286236      -0.000131
     14 H                     0.347747      -0.014769
     15 H                     0.357205      -0.000334
     16 H                     0.349515       0.002156
     17 H                     0.309266      -0.001070
     18 H                     0.282972       0.000631
     19 O                    -0.251289       0.533660
     20 O                    -0.069633       0.550455
  --------------------------------------------------------
  Sum of atomic charges =    -0.000000

                    Cartesian Multipole Moments
 -----------------------------------------------------------------
    Charge (ESU x 10^10)
                -0.0000
    Dipole Moment (Debye)
         X       2.2190      Y       1.7460      Z       3.0400
       Tot       4.1490
    Quadrupole Moments (Debye-Ang)
        XX     -82.4798     XY       3.6228     YY     -53.4387
        XZ      -7.8149     YZ       3.4289     ZZ     -74.1447

             Standard Nuclear Orientation (Angstroms)
    I     Atom           X                Y                Z
 ----------------------------------------------------------------
    1      C       0.8750341572     0.1398017542     0.0589428138
    2      C       2.3307329501     0.5100687137     0.0995547142
    3      O       3.0731423174    -0.3375126766     0.9801461585
    4      C      -0.0884852070     0.9978685499     0.4489008100
    5      C      -1.5035650046     0.6536260040     0.3008952774
    6      O      -2.4185522915     1.2842425303     1.1758435038
    7      C      -1.8320908149    -0.7147270774     0.0037405118
    8      C      -0.7855171009    -1.6140853290    -0.3360126144
    9      C       0.5028669495    -1.1888143870    -0.3456627760
   10      H       2.7836411094     0.3809107117    -0.8825546724
   11      H       2.4390991565     1.5561314833     0.3908422196
   12      H       2.7266904452    -0.2108095967     1.8703023630
   13      H       0.1499498025     1.9963929533     0.7958268361
   14      H      -1.7237399056     1.0760053513    -0.8023852395
   15      H      -2.4332322982     2.2267458659     0.9752590297
   16      H      -2.7900070868    -1.0988164497     0.3203615313
   17      H      -1.0297184281    -2.6420891957    -0.5629854124
   18      H       1.2913900386    -1.8811817589    -0.6133575548
   19      O      -2.4315257853     0.8144961722    -2.1357417664
   20      O      -2.6800238034    -0.3998328188    -1.8720148334
 ----------------------------------------------------------------

 Frequency:      -455.67                  63.15                  84.44
 Force Cnst:      0.6263                 0.0134                 0.0176
 Red. Mass:       5.1198                 5.7009                 4.1981
 IR Intens:       37.834                  6.878                  8.867
 Frequency:       118.75                 136.53                 209.75
 Force Cnst:      0.0586                 0.0687                 0.0872
 Red. Mass:       7.0519                 6.2505                 3.3644
 IR Intens:        1.897                  4.737                137.714
 Frequency:       231.70                 234.41                 249.06
 Force Cnst:      0.0429                 0.1589                 0.0622
 Red. Mass:       1.3567                 4.9079                 1.7013
 IR Intens:      155.838                  2.249                126.751
 Frequency:       303.24                 342.18                 373.68
 Force Cnst:      0.1051                 0.2007                 0.3787
 Red. Mass:       1.9401                 2.9100                 4.6024
 IR Intens:       71.721                140.023                  8.837
 Frequency:       454.99                 483.21                 505.10
 Force Cnst:      0.4871                 0.6030                 0.7464
 Red. Mass:       3.9939                 4.3829                 4.9657
 IR Intens:       19.750                 37.766                 13.429
 Frequency:       552.25                 644.71                 698.19
 Force Cnst:      0.7037                 1.1956                 0.7387
 Red. Mass:       3.9160                 4.8823                 2.5720
 IR Intens:       76.105                 65.190                 33.546
 Frequency:       745.58                 826.27                 874.45
 Force Cnst:      1.6001                 0.5519                 1.0743
 Red. Mass:       4.8856                 1.3721                 2.3846
 IR Intens:       16.892                 71.503                 14.469
 Frequency:       906.41                 953.08                 987.59
 Force Cnst:      0.9081                 1.0991                 1.4750
 Red. Mass:       1.8760                 2.0536                 2.5667
 IR Intens:       37.953                 20.197                159.409
 Frequency:      1009.38                1034.39                1051.28
 Force Cnst:      0.8160                 0.8626                 3.0548
 Red. Mass:       1.3594                 1.3684                 4.6913
 IR Intens:        4.975                  3.094                120.398
 Frequency:      1082.22                1140.47                1183.63
 Force Cnst:      1.0647                 1.0050                 1.1772
 Red. Mass:       1.5429                 1.3114                 1.4262
 IR Intens:       31.554                218.330                 19.739
 Frequency:      1193.88                1201.88                1227.35
 Force Cnst:      1.2124                 0.9444                 1.0544
 Red. Mass:       1.4437                 1.1096                 1.1880
 IR Intens:       14.042                  7.487                 84.038
 Frequency:      1277.21                1308.34                1336.67
 Force Cnst:      1.6610                 2.2912                 2.0447
 Red. Mass:       1.7282                 2.2718                 1.9424
 IR Intens:      132.998                150.835                137.266
 Frequency:      1353.01                1374.62                1405.42
 Force Cnst:      4.1133                 1.4311                 2.3961
 Red. Mass:       3.8137                 1.2854                 2.0589
 IR Intens:      425.601                 43.056                113.337
 Frequency:      1414.27                1477.48                1485.32
 Force Cnst:      1.5826                 3.3710                 1.5127
 Red. Mass:       1.3430                 2.6210                 1.1637
 IR Intens:       67.845                 79.427                 20.711
 Frequency:      1492.05                1579.56                1698.88
 Force Cnst:      3.7708                 4.1899                 7.8234
 Red. Mass:       2.8749                 2.8502                 4.6006
 IR Intens:       42.575                 58.443                128.709
 Frequency:      1838.90                3063.31                3116.67
 Force Cnst:      2.6045                 5.8676                 6.3233
 Red. Mass:       1.3073                 1.0613                 1.1049
 IR Intens:      772.464                 59.475                 30.202
 Frequency:      3188.72                3191.46                3214.15
 Force Cnst:      6.5426                 6.5348                 6.6558
 Red. Mass:       1.0921                 1.0889                 1.0935
 IR Intens:        4.021                  4.372                  9.669
 Frequency:      3227.86                3822.55                3824.43
 Force Cnst:      6.7195                 9.1824                 9.1955
 Red. Mass:       1.0946                 1.0666                 1.0671
 IR Intens:        3.153                100.858                160.825

 STANDARD THERMODYNAMIC QUANTITIES AT   298.15 K  AND     1.00 ATM

   This Molecule has  1 Imaginary Frequencies
   Zero point vibrational energy:       95.487 kcal/mol

   Atom    1 Element C  Has Mass   12.00000
   Atom    2 Element C  Has Mass   12.00000
   Atom    3 Element O  Has Mass   15.99491
   Atom    4 Element C  Has Mass   12.00000
   Atom    5 Element C  Has Mass   12.00000
   Atom    6 Element O  Has Mass   15.99491
   Atom    7 Element C  Has Mass   12.00000
   Atom    8 Element C  Has Mass   12.00000
   Atom    9 Element C  Has Mass   12.00000
   Atom   10 Element H  Has Mass    1.00783
   Atom   11 Element H  Has Mass    1.00783
   Atom   12 Element H  Has Mass    1.00783
   Atom   13 Element H  Has Mass    1.00783
   Atom   14 Element H  Has Mass    1.00783
   Atom   15 Element H  Has Mass    1.00783
   Atom   16 Element H  Has Mass    1.00783
   Atom   17 Element H  Has Mass    1.00783
   Atom   18 Element H  Has Mass    1.00783
   Atom   19 Element O  Has Mass   15.99491
   Atom   20 Element O  Has Mass   15.99491
   Molecular Mass:   157.050110 amu
   Principal axes and moments of inertia in amu*Bohr^2:
                             1           2           3
    Eigenvalues --      945.89873  2684.43743  2992.47692
          X               0.95206    -0.14555    -0.26907
          Y              -0.07330     0.74540    -0.66258
          Z               0.29700     0.65054     0.69900
   Rotational Symmetry Number is   1
   The Molecule is an Asymmetric Top
   Translational Enthalpy:        0.889 kcal/mol
   Rotational Enthalpy:           0.889 kcal/mol
   Vibrational Enthalpy:        100.464 kcal/mol
   gas constant (RT):             0.592 kcal/mol
   Translational Entropy:        41.063  cal/mol.K
   Rotational Entropy:           30.408  cal/mol.K
   Vibrational Entropy:          30.314  cal/mol.K

   Total Enthalpy:              102.834 kcal/mol
   Total Entropy:               101.786  cal/mol.K
 Total job time:  68278.74s(wall), 494528.54s(cpu)
        *  Thank you very much for using Q-Chem.  Have a nice day.  *
