 Q-Chem 5.4, Q-Chem, Inc., Pleasanton, CA (2021)
 Q-Chem 5.4.1 for Intel X86 EM64T Linux

User input:
--------------------------------------------------------------
$molecule
0 2
C    0.8665396    0.0998288    0.0302134
C    2.3238157    0.4748175    0.0049630
O    3.0988602   -0.3210830    0.9074558
C   -0.0759809    0.9935918    0.4149026
C   -1.6344671    0.7919732    0.4611231
O   -2.6919180    1.2807543    1.3251375
C   -1.8336241   -0.7443746    0.0932135
C   -0.8624873   -1.6126226   -0.2904468
C    0.4909362   -1.2211321   -0.3402099
H    2.7451523    0.2916938   -0.9826808
H    2.4411413    1.5349826    0.2361891
H    2.7796813   -0.1468313    1.7997765
H    0.2091385    1.9991316    0.7038355
H   -1.8208709    1.2284897   -0.7070446
H   -2.7852173    2.2274557    1.1673934
H   -2.8707274   -1.0509347    0.1336596
H   -1.1282295   -2.6251124   -0.5657823
H    1.2506583   -1.9259002   -0.6487125
O   -1.9502247    0.7744363   -2.0713688
O   -2.0960870   -0.5007436   -1.8017164
$end

$rem
BASIS = 6-311++G(2df,2p)
GUI = 2
JOB_TYPE = Frequency
METHOD = wB97M-V
SOLVENT_METHOD = SMD
SCF_ALGORITHM = DIIS_GDM
MAX_SCF_CYCLES = 400
SCF_CONVERGENCE = 6
THRESH = 11
SYMMETRY_IGNORE = 1
$end

--------------------------------------------------------------

   23    -572.8068667734      8.07e-07  Convergence criterion met
 Total energy in the final basis set =     -572.8013894290
   21    -572.8068463758      8.35e-07  Convergence criterion met
 Total energy in the final basis set =     -572.8013690176
   21    -572.8068848172      8.23e-07  Convergence criterion met
 Total energy in the final basis set =     -572.8014074837
   21    -572.8068720788      8.25e-07  Convergence criterion met
 Total energy in the final basis set =     -572.8013948253
   21    -572.8068592169      8.39e-07  Convergence criterion met
 Total energy in the final basis set =     -572.8013817798
   21    -572.8068642581      8.24e-07  Convergence criterion met
 Total energy in the final basis set =     -572.8013868942
   21    -572.8068685339      8.33e-07  Convergence criterion met
 Total energy in the final basis set =     -572.8013912087
   21    -572.8068699914      8.31e-07  Convergence criterion met
 Frequency:      -856.52                 -72.10                  81.98
 Force Cnst:      0.8838                 0.0227                 0.0125
 Red. Mass:       2.0446                 7.4200                 3.1516
 IR Intens:      280.354                  2.173                  2.574
 Frequency:       114.48                 148.51                 189.94
 Force Cnst:      0.0086                 0.0824                 0.0912
 Red. Mass:       1.1131                 6.3450                 4.2891
 IR Intens:      241.216                  4.938                  3.829
 Frequency:       234.79                 249.23                 298.86
 Force Cnst:      0.2643                 0.0739                 0.2201
 Red. Mass:       8.1384                 2.0204                 4.1826
 IR Intens:       17.642                105.949                 17.907
 Frequency:       304.06                 344.43                 388.46
 Force Cnst:      0.1031                 0.3270                 0.2638
 Red. Mass:       1.8933                 4.6784                 2.9667
 IR Intens:       99.716                  4.307                 37.014
 Frequency:       422.84                 431.47                 500.58
 Force Cnst:      0.4491                 0.5835                 0.7410
 Red. Mass:       4.2629                 5.3193                 5.0188
 IR Intens:       16.220                226.610                 31.700
 Frequency:       546.55                 591.15                 648.19
 Force Cnst:      0.7059                 1.3338                 0.8674
 Red. Mass:       4.0105                 6.4778                 3.5040
 IR Intens:       46.312                 15.262                 41.747
 Frequency:       707.39                 773.95                 824.83
 Force Cnst:      1.1425                 1.0774                 0.6421
 Red. Mass:       3.8753                 3.0529                 1.6018
 IR Intens:       22.612                175.379                 62.898
 Frequency:       853.25                 909.13                 943.19
 Force Cnst:      0.9245                 0.9588                 1.1305
 Red. Mass:       2.1553                 1.9689                 2.1568
 IR Intens:       76.813                 99.106                123.627
 Frequency:       959.80                 979.95                1004.53
 Force Cnst:      2.2850                 1.0138                 0.8540
 Red. Mass:       4.2100                 1.7919                 1.4364
 IR Intens:      115.730                 72.311                 12.018
 Frequency:      1040.84                1064.12                1079.59
 Force Cnst:      3.1579                 1.1020                 1.4563
 Red. Mass:       4.9475                 1.6518                 2.1208
 IR Intens:      184.867                 24.741                 68.696
 Frequency:      1103.32                1156.52                1179.70
 Force Cnst:      1.5165                 3.5761                 0.8893
 Red. Mass:       2.1145                 4.5380                 1.0846
 IR Intens:       83.328                449.328                 26.635
 Frequency:      1201.62                1205.07                1272.72
 Force Cnst:      1.0791                 1.1755                 1.3919
 Red. Mass:       1.2685                 1.3738                 1.4585
 IR Intens:       50.946                118.264                 58.824
 Frequency:      1309.62                1326.05                1371.13
 Force Cnst:      1.2261                 1.2508                 1.3940
 Red. Mass:       1.2133                 1.2073                 1.2585
 IR Intens:       40.709                 15.979                 17.626
 Frequency:      1412.76                1415.43                1477.74
 Force Cnst:      1.6685                 1.6955                 4.5586
 Red. Mass:       1.4188                 1.4364                 3.5431
 IR Intens:       46.174                 75.243                124.402
 Frequency:      1485.93                1563.89                1604.49
 Force Cnst:      1.4312                 5.0607                 1.8985
 Red. Mass:       1.1002                 3.5119                 1.2517
 IR Intens:       12.257                 20.505                247.385
 Frequency:      1682.83                3061.86                3115.71
 Force Cnst:      7.5803                 5.8620                 6.3201
 Red. Mass:       4.5431                 1.0613                 1.1050
 IR Intens:       21.408                 57.199                 30.076
 Frequency:      3170.55                3186.58                3202.09
 Force Cnst:      6.4560                 6.4995                 6.6226
 Red. Mass:       1.0900                 1.0864                 1.0963
 IR Intens:       20.459                  4.498                  9.210
 Frequency:      3216.12                3821.84                3822.31
 Force Cnst:      6.6636                 9.1796                 9.1846
 Red. Mass:       1.0934                 1.0667                 1.0670
 IR Intens:        7.835                100.087                204.097

 STANDARD THERMODYNAMIC QUANTITIES AT   298.15 K  AND     1.00 ATM

   This Molecule has  2 Imaginary Frequencies
   Zero point vibrational energy:       92.925 kcal/mol

   Atom    1 Element C  Has Mass   12.00000
   Atom    2 Element C  Has Mass   12.00000
   Atom    3 Element O  Has Mass   15.99491
   Atom    4 Element C  Has Mass   12.00000
   Atom    5 Element C  Has Mass   12.00000
   Atom    6 Element O  Has Mass   15.99491
   Atom    7 Element C  Has Mass   12.00000
   Atom    8 Element C  Has Mass   12.00000
   Atom    9 Element C  Has Mass   12.00000
   Atom   10 Element H  Has Mass    1.00783
   Atom   11 Element H  Has Mass    1.00783
   Atom   12 Element H  Has Mass    1.00783
   Atom   13 Element H  Has Mass    1.00783
   Atom   14 Element H  Has Mass    1.00783
   Atom   15 Element H  Has Mass    1.00783
   Atom   16 Element H  Has Mass    1.00783
   Atom   17 Element H  Has Mass    1.00783
   Atom   18 Element H  Has Mass    1.00783
   Atom   19 Element O  Has Mass   15.99491
   Atom   20 Element O  Has Mass   15.99491
   Molecular Mass:   157.050110 amu
   Principal axes and moments of inertia in amu*Bohr^2:
                             1           2           3
    Eigenvalues --     1043.86491  2494.53415  2834.66870
          X               0.97350    -0.09638     0.20740
          Y              -0.09465     0.65576     0.74902
          Z               0.20819     0.74880    -0.62925
   Rotational Symmetry Number is   1
   The Molecule is an Asymmetric Top
   Translational Enthalpy:        0.889 kcal/mol
   Rotational Enthalpy:           0.889 kcal/mol
   Vibrational Enthalpy:         97.513 kcal/mol
   gas constant (RT):             0.592 kcal/mol
   Translational Entropy:        41.063  cal/mol.K
   Rotational Entropy:           30.379  cal/mol.K
   Vibrational Entropy:          26.408  cal/mol.K

   Total Enthalpy:               99.883 kcal/mol
   Total Entropy:                97.851  cal/mol.K
 Total job time:  52312.72s(wall), 404875.50s(cpu)
        *  Thank you very much for using Q-Chem.  Have a nice day.  *
 Q-Chem 5.4, Q-Chem, Inc., Pleasanton, CA (2021)
 Q-Chem 5.4.1 for Intel X86 EM64T Linux

User input:
--------------------------------------------------------------

$rem
JOBTYPE = ts
SCF_GUESS = read
GEOM_OPT_HESSIAN = read
MAX_SCF_CYCLES = 350
GEOM_OPT_DMAX = 60
GEOM_OPT_MAX_CYCLES = 250
METHOD = wB97M-v
BASIS = 6-311++G(2df,2p)
SCF_CONVERGENCE = 7
THRESH = 12
SCF_ALGORITHM = DIIS_GDM
solvent_method = SMD
UNRESTRICTED = 1
$end

$molecule
read
$end
--------------------------------------------------------------

   23    -572.8675233420      8.71e-08  Convergence criterion met
 Total energy in the final basis set =     -572.8623123817
   24    -572.8675181068      3.79e-08  Convergence criterion met
 Total energy in the final basis set =     -572.8623077264
   23    -572.8675260388      5.88e-08  Convergence criterion met
 Total energy in the final basis set =     -572.8623128077
   23    -572.8675259945      6.59e-08  Convergence criterion met
 Total energy in the final basis set =     -572.8623133354
   23    -572.8675249276      5.94e-08  Convergence criterion met
 Total energy in the final basis set =     -572.8623085747
   24    -572.8675261707      3.72e-08  Convergence criterion met
 Total energy in the final basis set =     -572.8623133790

             Standard Nuclear Orientation (Angstroms)
    I     Atom           X                Y                Z
 ----------------------------------------------------------------
    1      C       0.8750341572     0.1398017542     0.0589428138
    2      C       2.3307329501     0.5100687137     0.0995547142
    3      O       3.0731423174    -0.3375126766     0.9801461585
    4      C      -0.0884852070     0.9978685499     0.4489008100
    5      C      -1.5035650046     0.6536260040     0.3008952774
    6      O      -2.4185522915     1.2842425303     1.1758435038
    7      C      -1.8320908149    -0.7147270774     0.0037405118
    8      C      -0.7855171009    -1.6140853290    -0.3360126144
    9      C       0.5028669495    -1.1888143870    -0.3456627760
   10      H       2.7836411094     0.3809107117    -0.8825546724
   11      H       2.4390991565     1.5561314833     0.3908422196
   12      H       2.7266904452    -0.2108095967     1.8703023630
   13      H       0.1499498025     1.9963929533     0.7958268361
   14      H      -1.7237399056     1.0760053513    -0.8023852395
   15      H      -2.4332322982     2.2267458659     0.9752590297
   16      H      -2.7900070868    -1.0988164497     0.3203615313
   17      H      -1.0297184281    -2.6420891957    -0.5629854124
   18      H       1.2913900386    -1.8811817589    -0.6133575548
   19      O      -2.4315257853     0.8144961722    -2.1357417664
   20      O      -2.6800238034    -0.3998328188    -1.8720148334
 ----------------------------------------------------------------

   23    -572.8675264313      7.09e-08  Convergence criterion met
 Total energy in the final basis set =     -572.8623133780
 Final energy is   -572.862313378042
 **  OPTIMIZATION CONVERGED  **

                    Orbital Energies (a.u.)
 --------------------------------------------------------------

 Alpha MOs
 -- Occupied --
-19.4199 -19.4149 -19.3495 -19.3385 -10.4062 -10.3951 -10.3878 -10.3644
-10.3612 -10.3561 -10.3522  -1.3289  -1.1715  -1.1556  -0.9961  -0.9281
 -0.9008  -0.8792  -0.8054  -0.7438  -0.7165  -0.6640  -0.6469  -0.6215
 -0.6058  -0.5946  -0.5905  -0.5867  -0.5529  -0.5512  -0.5348  -0.5289
 -0.4927  -0.4788  -0.4549  -0.4451  -0.4399  -0.4018  -0.3894  -0.3724
 -0.3540  -0.3246

 Beta MOs
 -- Occupied --
-19.4033 -19.3992 -19.3495 -19.3385 -10.4061 -10.3958 -10.3878 -10.3649
-10.3615 -10.3559 -10.3518  -1.2979  -1.1716  -1.1555  -0.9964  -0.9096
 -0.8823  -0.8730  -0.8052  -0.7439  -0.7165  -0.6611  -0.6437  -0.6205
 -0.5912  -0.5896  -0.5710  -0.5515  -0.5465  -0.5367  -0.5280  -0.5126
 -0.4890  -0.4778  -0.4547  -0.4449  -0.4388  -0.3979  -0.3877  -0.3493
 -0.3105

          Ground-State Mulliken Net Atomic Charges

     Atom                 Charge (a.u.)    Spin (a.u.)
  --------------------------------------------------------
      1 C                     0.512349       0.009400
      2 C                    -0.548812      -0.000073
      3 O                    -0.395333       0.000216
      4 C                    -0.451283      -0.020465
      5 C                    -0.440841       0.003192
      6 O                    -0.439156      -0.000518
      7 C                    -0.161384      -0.044870
      8 C                    -0.291538       0.013501
      9 C                    -0.170874      -0.031054
     10 H                     0.216895       0.000278
     11 H                     0.228300       0.000071
     12 H                     0.329481      -0.000069
     13 H                     0.286233      -0.000132
     14 H                     0.347733      -0.014736
     15 H                     0.357202      -0.000333
     16 H                     0.349511       0.002153
     17 H                     0.309273      -0.001070
     18 H                     0.282967       0.000630
     19 O                    -0.251387       0.533634
     20 O                    -0.069335       0.550244
  --------------------------------------------------------
  Sum of atomic charges =    -0.000000

                    Cartesian Multipole Moments
 -----------------------------------------------------------------
    Charge (ESU x 10^10)
                -0.0000
    Dipole Moment (Debye)
         X       2.2182      Y       1.7450      Z       3.0388
       Tot       4.1472
    Quadrupole Moments (Debye-Ang)
        XX     -82.4794     XY       3.6244     YY     -53.4394
        XZ      -7.8118     YZ       3.4288     ZZ     -74.1416

 Total job time:  19783.98s(wall), 154159.66s(cpu)
        *  Thank you very much for using Q-Chem.  Have a nice day.  *
