 Q-Chem 5.4, Q-Chem, Inc., Pleasanton, CA (2021)
 Q-Chem 5.4.1 for Intel X86 EM64T Linux

User input:
--------------------------------------------------------------
$molecule
0 2
C         0.8692705732    0.1189238700    0.0704893237
C         2.3268075869    0.5150432804    0.0339029653
O         3.1669749108   -0.4257485319    0.7016759849
C        -0.0933374426    1.0129612990    0.4260145739
C        -1.5553381839    0.6781501322    0.4528490940
O        -2.1263238087    0.9377793362    1.7579373690
C        -1.8323355760   -0.7531228062    0.1158348890
C        -0.8424561484   -1.6241363278   -0.2315811644
C         0.5122624349   -1.2182063355   -0.2732147487
H         2.6839878395    0.5387143642   -1.0009859481
H         2.4510997835    1.5222027887    0.4529595686
H         2.8746250973   -0.4517993380    1.6272932929
H         0.1783363048    2.0295591401    0.7076171963
H        -2.0838583721    1.3224912907   -0.2721216661
H        -2.1414558936    1.9035395437    1.8635553357
H        -2.8705998015   -1.0719435048    0.1571115313
H        -1.0926447674   -2.6532124857   -0.4774249860
H         1.2884262630   -1.9269210156   -0.5440703112
$end

$rem
BASIS = 6-311++G(2df,2p)
GUI = 2
JOB_TYPE = Optimization
METHOD = wB97M-V
SCF_ALGORITHM = DIIS_GDM
MAX_SCF_CYCLES = 400
GEOM_OPT_MAX_CYCLES = 150
SCF_CONVERGENCE = 7
THRESH = 12
Solvent_method = SMD
$end
--------------------------------------------------------------

   19    -422.5324907539      7.51e-08  Convergence criterion met
 Total energy in the final basis set =     -422.5266734528
   17    -422.5330363594      4.31e-08  Convergence criterion met
 Total energy in the final basis set =     -422.5272543396
   16    -422.5330988860      5.89e-08  Convergence criterion met
 Total energy in the final basis set =     -422.5273206737
   16    -422.5332024056      6.21e-08  Convergence criterion met
 Total energy in the final basis set =     -422.5274269972
   16    -422.5332284916      6.06e-08  Convergence criterion met
 Total energy in the final basis set =     -422.5274544407
   16    -422.5332368349      6.38e-08  Convergence criterion met
 Total energy in the final basis set =     -422.5274617593
   16    -422.5332379050      5.51e-08  Convergence criterion met
 Total energy in the final basis set =     -422.5274628726

             Standard Nuclear Orientation (Angstroms)
    I     Atom           X                Y                Z
 ----------------------------------------------------------------
    1      C       0.8665396136     0.0998288022     0.0302133654
    2      C       2.3238157108     0.4748175249     0.0049630083
    3      O       3.0988602492    -0.3210830296     0.9074558042
    4      C      -0.0759809430     0.9935917529     0.4149025771
    5      C      -1.5327016957     0.6647814744     0.4746295466
    6      O      -2.0542772418     0.8766958847     1.8112975699
    7      C      -1.8336241065    -0.7443746067     0.0932134581
    8      C      -0.8624872600    -1.6126225539    -0.2904468368
    9      C       0.4909361850    -1.2211320982    -0.3402098647
   10      H       2.7451523243     0.2916938208    -0.9826807883
   11      H       2.4411412938     1.5349825972     0.2361891199
   12      H       2.7796812843    -0.1468312813     1.7997764593
   13      H       0.2091385125     1.9991315596     0.7038354952
   14      H      -2.0825241968     1.3405927865    -0.1941756193
   15      H      -2.0519303153     1.8261493337     1.9797142623
   16      H      -2.8707273808    -1.0509346850     0.1336595970
   17      H      -1.1282295446    -2.6251123608    -0.5657823064
   18      H       1.2506583106    -1.9259002218    -0.6487125477
 ----------------------------------------------------------------

   16    -422.5332387534      5.41e-08  Convergence criterion met
 Total energy in the final basis set =     -422.5274636275
 Final energy is   -422.527463627523
 **  OPTIMIZATION CONVERGED  **

                    Orbital Energies (a.u.)
 --------------------------------------------------------------

 Alpha MOs
 -- Occupied --
-19.3380 -19.3371 -10.3993 -10.3849 -10.3514 -10.3497 -10.3476 -10.3463
-10.3431  -1.1543  -1.1533  -0.9783  -0.8933  -0.8634  -0.7970  -0.7416
 -0.7036  -0.6352  -0.6255  -0.6053  -0.5798  -0.5687  -0.5485  -0.5248
 -0.5211  -0.4882  -0.4771  -0.4506  -0.4430  -0.4308  -0.3987  -0.3891
 -0.3607  -0.2700

 Beta MOs
 -- Occupied --
-19.3372 -19.3364 -10.3999 -10.3848 -10.3521 -10.3457 -10.3436 -10.3419
-10.3415  -1.1538  -1.1506  -0.9719  -0.8898  -0.8541  -0.7922  -0.7333
 -0.6996  -0.6330  -0.6194  -0.6015  -0.5750  -0.5648  -0.5480  -0.5211
 -0.5180  -0.4825  -0.4727  -0.4432  -0.4302  -0.4221  -0.3931  -0.3850
 -0.3439

          Ground-State Mulliken Net Atomic Charges

     Atom                 Charge (a.u.)    Spin (a.u.)
  --------------------------------------------------------
      1 C                     0.592776      -0.135961
      2 C                    -0.513866       0.007291
      3 O                    -0.399476      -0.001983
      4 C                    -0.484661       0.320453
      5 C                    -0.789690       0.022542
      6 O                    -0.405620       0.017881
      7 C                    -0.001020       0.369960
      8 C                    -0.343891      -0.130253
      9 C                    -0.133257       0.510912
     10 H                     0.207284      -0.002504
     11 H                     0.233028      -0.000497
     12 H                     0.328153       0.001369
     13 H                     0.291084      -0.008815
     14 H                     0.189487       0.041245
     15 H                     0.329990       0.003825
     16 H                     0.307749      -0.010076
     17 H                     0.299766       0.005813
     18 H                     0.292165      -0.011202
  --------------------------------------------------------
  Sum of atomic charges =     0.000000

                    Cartesian Multipole Moments
 -----------------------------------------------------------------
    Charge (ESU x 10^10)
                 0.0000
    Dipole Moment (Debye)
         X      -0.9660      Y       3.0821      Z      -1.1566
       Tot       3.4308
    Quadrupole Moments (Debye-Ang)
        XX     -62.8288     XY       1.0866     YY     -45.2689
        XZ       3.1742     YZ       5.4625     ZZ     -56.4098

 Total job time:  2278.49s(wall), 17516.13s(cpu)
        *  Thank you very much for using Q-Chem.  Have a nice day.  *
