 Q-Chem 5.4, Q-Chem, Inc., Pleasanton, CA (2021)
 Q-Chem 5.4.1 for Intel X86 EM64T Linux

User input:
--------------------------------------------------------------
$molecule
-1 2
C         2.6325275868   -1.3057115060   -0.8933791283
O         1.7348791584   -0.3981730532   -1.5163987406
C         3.3035170515   -0.5576656417    0.2896529233
O         2.6090963793   -0.7234886613    1.4163796668
C         3.7031259088    0.8779797296   -0.0617128831
C         4.7885927251    1.4769729136    0.8267323609
O         4.6360392230    1.1868612274    2.2221587838
O         3.2800663109    1.4621440158    2.6290321198
C         4.9781611198    2.9809517756    0.6153624650
O         3.7315527135    3.6316777875    0.7384856193
O         5.9143535477    3.4749506520    1.5460696497
H         3.3683862005   -1.6492772352   -1.6258233365
H         1.2941248188   -0.8912761737   -2.2287636132
H         2.7869749342    1.4701902615    0.0002981639
H         4.0585395922    0.9354045354   -1.0957990618
H         5.7552883777    1.0108911084    0.6073349706
H         2.8626608337    0.6012230822    2.3045771405
H         5.4093257475    3.1630059165   -0.3755018819
H         3.8837787663    4.5643743826    0.5128167842
H         5.6655127741    3.0690610506    2.3977846112
O         1.9648896197   -2.4223641082   -0.3758762527
H         1.7703729999   -2.1364707309    0.5494147476
O         4.6112318013   -1.3525077190    0.5235221137
O         5.4497047754   -1.2708477722   -0.4793031376
O         0.3106131409    0.6738140294    0.7005858788
H         1.0456944574    0.2001923968    1.1484813358
H         0.4967665359    0.4066385365   -0.2190306992
$end

$rem
BASIS = 6-311++G(2df,2p)
GUI = 2
JOB_TYPE = Optimization
METHOD = wB97M-V
SCF_ALGORITHM = DIIS_GDM
MAX_SCF_CYCLES = 400
GEOM_OPT_MAX_CYCLES = 150
SCF_CONVERGENCE = 7
THRESH = 12
Solvent_method = SMD
$end
--------------------------------------------------------------

   22    -950.0311728983      8.92e-08  Convergence criterion met
 Total energy in the final basis set =     -950.0254919670
   21    -950.0310652065      7.58e-08  Convergence criterion met
 Total energy in the final basis set =     -950.0254076733
   21    -950.0297202456      4.70e-08  Convergence criterion met
 Total energy in the final basis set =     -950.0238074509
   21    -950.0304247581      5.96e-08  Convergence criterion met
 Total energy in the final basis set =     -950.0246439046
   21    -950.0312951609      7.97e-08  Convergence criterion met
 Total energy in the final basis set =     -950.0255274745
   21    -950.0328247622      4.62e-08  Convergence criterion met
 Total energy in the final basis set =     -950.0270275966
   21    -950.0328451023      6.52e-08  Convergence criterion met
 Total energy in the final basis set =     -950.0270227932
   20    -950.0330948711      9.39e-08  Convergence criterion met
   20    -950.0335666357      6.66e-08  Convergence criterion met
 Total energy in the final basis set =     -950.0276579532
   20    -950.0335724813      5.33e-08  Convergence criterion met
 Total energy in the final basis set =     -950.0276606221
   20    -950.0335764580      6.59e-08  Convergence criterion met
 Total energy in the final basis set =     -950.0276628926
   21    -950.0335805474      3.02e-08  Convergence criterion met
 Total energy in the final basis set =     -950.0276655419
   21    -950.0335844532      3.60e-08  Convergence criterion met
 Total energy in the final basis set =     -950.0276675844
   20    -950.0335868883      9.22e-08  Convergence criterion met
 Total energy in the final basis set =     -950.0276690959

             Standard Nuclear Orientation (Angstroms)
    I     Atom           X                Y                Z
 ----------------------------------------------------------------
    1      C       2.6554709856    -1.2252719985    -0.9307265424
    2      O       1.6902299770    -0.3411088316    -1.4612735382
    3      C       3.3074359840    -0.5157342339     0.2768329416
    4      O       2.5896464835    -0.6611082129     1.3832556394
    5      C       3.7653398244     0.9009146026    -0.0597397582
    6      C       4.8070740918     1.4872403089     0.8815013272
    7      O       4.5485582214     1.2702422387     2.2717130568
    8      O       3.1759383164     1.5463249000     2.5764537932
    9      C       5.0772018475     2.9634942990     0.5994920711
   10      O       3.8700340325     3.6911021608     0.6548035123
   11      O       6.0176763957     3.4716311215     1.5185913596
   12      H       3.3892281440    -1.4794659031    -1.6934958405
   13      H       1.3857107157    -0.7063839222    -2.2996790603
   14      H       2.8696436223     1.5181417004    -0.0681047443
   15      H       4.1848562372     0.9321712333    -1.0656959656
   16      H       5.7621733237     0.9775553108     0.7485191115
   17      H       2.7702827103     0.6906077509     2.2384089176
   18      H       5.5333999284     3.0642183846    -0.3859715958
   19      H       4.0468773901     4.5786733554     0.3229831968
   20      H       5.7441989450     3.1787620576     2.3990720710
   21      O       2.0672266014    -2.4198437325    -0.4845122612
   22      H       1.7896707819    -2.2307820412     0.4299496030
   23      O       4.5880770320    -1.3598774839     0.5363340933
   24      O       5.4618700106    -1.3134082497    -0.4250772978
   25      O       0.0231763182     0.2671694158     0.9896023795
   26      H       0.9261407688    -0.0669772802     1.1778044567
   27      H      -0.0013615892     0.2602638494     0.0260596740
 ----------------------------------------------------------------

   20    -950.0335884424      5.60e-08  Convergence criterion met
 Total energy in the final basis set =     -950.0276700189
 Final energy is   -950.027670018941
 **  OPTIMIZATION CONVERGED  **

                    Orbital Energies (a.u.)
 --------------------------------------------------------------

 Alpha MOs
 -- Occupied --
-19.4399 -19.4025 -19.3931 -19.3670 -19.3422 -19.3414 -19.3411 -19.3371
-19.3129 -19.2826 -10.4453 -10.4410 -10.4374 -10.3981 -10.3386  -1.3236
 -1.2532  -1.2004  -1.1966  -1.1339  -1.1310  -1.1236  -1.1117  -1.0307
 -0.9647  -0.9004  -0.8395  -0.7932  -0.7264  -0.6916  -0.6818  -0.6742
 -0.6426  -0.6301  -0.6196  -0.6064  -0.6034  -0.5881  -0.5824  -0.5708
 -0.5680  -0.5527  -0.5463  -0.5334  -0.5284  -0.5069  -0.4942  -0.4799
 -0.4554  -0.4551  -0.4449  -0.4325  -0.4223  -0.4169  -0.4116  -0.4093
 -0.4060  -0.4001  -0.3848  -0.3703  -0.3566  -0.3511

 Beta MOs
 -- Occupied --
-19.4286 -19.3931 -19.3846 -19.3669 -19.3422 -19.3414 -19.3411 -19.3371
-19.3129 -19.2828 -10.4457 -10.4410 -10.4372 -10.3981 -10.3384  -1.2967
 -1.2530  -1.2000  -1.1966  -1.1335  -1.1310  -1.1233  -1.1107  -1.0305
 -0.9326  -0.8972  -0.8365  -0.7923  -0.7259  -0.6853  -0.6810  -0.6712
 -0.6413  -0.6231  -0.6080  -0.6018  -0.5916  -0.5858  -0.5753  -0.5699
 -0.5588  -0.5458  -0.5333  -0.5284  -0.5137  -0.5000  -0.4885  -0.4782
 -0.4536  -0.4526  -0.4425  -0.4323  -0.4211  -0.4163  -0.4093  -0.4060
 -0.4044  -0.3970  -0.3721  -0.3528  -0.3457

          Ground-State Mulliken Net Atomic Charges

     Atom                 Charge (a.u.)    Spin (a.u.)
  --------------------------------------------------------
      1 C                    -0.194045       0.001979
      2 O                    -0.424107      -0.000372
      3 C                     0.340287       0.016679
      4 O                    -0.725853      -0.003460
      5 C                    -1.208915      -0.008668
      6 C                     0.479243       0.012415
      7 O                    -0.156852       0.002125
      8 O                    -0.389376      -0.000104
      9 C                    -0.360155      -0.003643
     10 O                    -0.449157      -0.000014
     11 O                    -0.446711      -0.000086
     12 H                     0.284522      -0.000853
     13 H                     0.342762       0.000307
     14 H                     0.332657      -0.000901
     15 H                     0.306889       0.001200
     16 H                     0.295495      -0.002669
     17 H                     0.372918      -0.000090
     18 H                     0.263863      -0.000083
     19 H                     0.347387      -0.000057
     20 H                     0.342236       0.000005
     21 O                    -0.447376       0.002311
     22 H                     0.337270      -0.000541
     23 O                     0.006554       0.347695
     24 O                    -0.251227       0.637181
     25 O                    -0.736508      -0.000031
     26 H                     0.407403      -0.000324
     27 H                     0.330796      -0.000002
  --------------------------------------------------------
  Sum of atomic charges =    -1.000000

                    Cartesian Multipole Moments
 -----------------------------------------------------------------
    Charge (ESU x 10^10)
                -4.8032
    Dipole Moment (Debye)
         X     -13.7659      Y       1.6053      Z     -11.1443
       Tot      17.7841
    Quadrupole Moments (Debye-Ang)
        XX    -157.5842     XY       9.1624     YY    -106.5461
        XZ     -28.9916     YZ     -10.8001     ZZ    -103.6394

 Total job time:  20096.53s(wall), 275370.51s(cpu)
        *  Thank you very much for using Q-Chem.  Have a nice day.  *
