 Q-Chem 5.4, Q-Chem, Inc., Pleasanton, CA (2021)
 Q-Chem 5.4.1 for Intel X86 EM64T Linux

User input:
--------------------------------------------------------------
$molecule
0 2
C        -0.2376835175   -0.1868766794    0.8651685676
C        -0.7859464092   -1.3313663487    1.6487257746
C        -1.8715903710   -2.0334137723    1.2448649973
C        -2.5546564403   -1.6972803595    0.0520717087
C        -2.1208376217   -0.5979102812   -0.7185345119
C        -1.0463006672    0.1517500152   -0.3538826039
C        -0.6494284434    1.3756747990   -1.1179176645
H        -0.1902444714    0.7039134205    1.5074795184
H        -0.2573304035   -1.5961632032    2.5554423417
H        -2.2252944928   -2.8664960001    1.8380369604
H        -3.4101126729   -2.2755806696   -0.2649303589
H        -2.6706277007   -0.3299508003   -1.6131804668
H        -1.3360621313    1.5433431336   -1.9482411011
O         0.7069303359    1.3180693122   -1.5985080721
H        -0.6803695300    2.2480689068   -0.4632102700
H         0.7501081228    0.6271633679   -2.2696827350
O         1.1301526345   -0.5295022048    0.5118449510
H         1.4151073799    0.1298611642   -0.1383608353
$end

$rem
BASIS = 6-311++G(2df,2p)
GUI = 2
JOB_TYPE = Frequency
METHOD = wB97M-V
SOLVENT_METHOD = SMD
SCF_ALGORITHM = DIIS_GDM
MAX_SCF_CYCLES = 400
SCF_CONVERGENCE = 7
THRESH = 12
UNRESTRICTED = 1
SYMMETRY_IGNORE = 1
$end
--------------------------------------------------------------

   19    -422.5356220602      4.55e-08  Convergence criterion met
 Total energy in the final basis set =     -422.5302403811
   16    -422.5356220076      9.64e-08  Convergence criterion met
 Total energy in the final basis set =     -422.5302399939
   16    -422.5356207347      9.49e-08  Convergence criterion met
 Total energy in the final basis set =     -422.5302393872
   16    -422.5356212127      9.72e-08  Convergence criterion met
 Total energy in the final basis set =     -422.5302394088
   16    -422.5356209671      9.54e-08  Convergence criterion met
 Total energy in the final basis set =     -422.5302394095
   16    -422.5356210554      9.69e-08  Convergence criterion met
 Total energy in the final basis set =     -422.5302394338
   16    -422.5356212039      9.51e-08  Convergence criterion met
 Total energy in the final basis set =     -422.5302394639
   16    -422.5356214835      8.64e-08  Convergence criterion met
 Total energy in the final basis set =     -422.5302397913
   16    -422.5356214413      9.58e-08  Convergence criterion met
 Total energy in the final basis set =     -422.5302399024
   16    -422.5356226875      9.65e-08  Convergence criterion met
 Total energy in the final basis set =     -422.5302401686
   16    -422.5356210813      9.55e-08  Convergence criterion met
 Total energy in the final basis set =     -422.5302402419
   16    -422.5356217702      9.64e-08  Convergence criterion met
 Total energy in the final basis set =     -422.5302399290
   16    -422.5356215089      9.58e-08  Convergence criterion met
 Total energy in the final basis set =     -422.5302399917
   16    -422.5356217177      9.60e-08  Convergence criterion met
 Total energy in the final basis set =     -422.5302400514
   16    -422.5356215997      9.62e-08  Convergence criterion met
 Total energy in the final basis set =     -422.5302399079

                    Orbital Energies (a.u.)
 --------------------------------------------------------------

 Alpha MOs
 -- Occupied --
-19.3430 -19.3320 -10.3983 -10.3877 -10.3547 -10.3524 -10.3476 -10.3438
-10.3426  -1.1630  -1.1446  -0.9776  -0.8966  -0.8653  -0.7979  -0.7367
 -0.7083  -0.6392  -0.6226  -0.6024  -0.5858  -0.5606  -0.5457  -0.5279
 -0.5222  -0.4980  -0.4787  -0.4529  -0.4418  -0.4399  -0.3941  -0.3826
 -0.3646  -0.2698

 Beta MOs
 -- Occupied --
-19.3424 -19.3303 -10.3990 -10.3881 -10.3494 -10.3463 -10.3453 -10.3448
-10.3423  -1.1610  -1.1415  -0.9709  -0.8907  -0.8560  -0.7972  -0.7276
 -0.7034  -0.6366  -0.6178  -0.6001  -0.5786  -0.5557  -0.5419  -0.5247
 -0.5194  -0.4933  -0.4753  -0.4390  -0.4382  -0.4249  -0.3904  -0.3792
 -0.3468

          Ground-State Mulliken Net Atomic Charges

     Atom                 Charge (a.u.)    Spin (a.u.)
  --------------------------------------------------------
      1 C                    -0.751027       0.023636
      2 C                     0.187191       0.341857
      3 C                    -0.554765      -0.127568
      4 C                    -0.263472       0.495654
      5 C                    -0.882627      -0.123538
      6 C                     0.972361       0.321771
      7 C                    -0.387275      -0.008854
      8 H                     0.213496       0.037244
      9 H                     0.311998      -0.009670
     10 H                     0.290202       0.005496
     11 H                     0.310253      -0.011709
     12 H                     0.267996       0.006808
     13 H                     0.241742       0.000124
     14 O                    -0.402213       0.005081
     15 H                     0.213128       0.014085
     16 H                     0.332963       0.000457
     17 O                    -0.437388       0.024515
     18 H                     0.337436       0.004611
  --------------------------------------------------------
  Sum of atomic charges =    -0.000000

                    Cartesian Multipole Moments
 -----------------------------------------------------------------
    Charge (ESU x 10^10)
                -0.0000
    Dipole Moment (Debye)
         X      -3.4508      Y       0.6493      Z      -1.6577
       Tot       3.8830
    Quadrupole Moments (Debye-Ang)
        XX     -53.3380     XY       2.4749     YY     -55.4087
        XZ       1.1671     YZ       0.5458     ZZ     -47.8002

             Standard Nuclear Orientation (Angstroms)
    I     Atom           X                Y                Z
 ----------------------------------------------------------------
    1      C      -0.2376835175    -0.1868766794     0.8651685676
    2      C      -0.7859464092    -1.3313663487     1.6487257746
    3      C      -1.8715903710    -2.0334137723     1.2448649973
    4      C      -2.5546564403    -1.6972803595     0.0520717087
    5      C      -2.1208376217    -0.5979102812    -0.7185345119
    6      C      -1.0463006672     0.1517500152    -0.3538826039
    7      C      -0.6494284434     1.3756747990    -1.1179176645
    8      H      -0.1902444714     0.7039134205     1.5074795184
    9      H      -0.2573304035    -1.5961632032     2.5554423417
   10      H      -2.2252944928    -2.8664960001     1.8380369604
   11      H      -3.4101126729    -2.2755806696    -0.2649303589
   12      H      -2.6706277007    -0.3299508003    -1.6131804668
   13      H      -1.3360621313     1.5433431336    -1.9482411011
   14      O       0.7069303359     1.3180693122    -1.5985080721
   15      H      -0.6803695300     2.2480689068    -0.4632102700
   16      H       0.7501081228     0.6271633679    -2.2696827350
   17      O       1.1301526345    -0.5295022048     0.5118449510
   18      H       1.4151073799     0.1298611642    -0.1383608353
 ----------------------------------------------------------------

 Frequency:        58.51                  98.80                 189.44
 Force Cnst:      0.0094                 0.0204                 0.1190
 Red. Mass:       4.6512                 3.5394                 5.6301
 IR Intens:        6.162                  1.869                 13.799
 Frequency:       259.30                 319.10                 340.83
 Force Cnst:      0.1006                 0.1112                 0.1873
 Red. Mass:       2.5396                 1.8528                 2.7372
 IR Intens:       56.796                 83.285                 53.334
 Frequency:       366.02                 420.58                 484.19
 Force Cnst:      0.1621                 0.3106                 0.5046
 Red. Mass:       2.0537                 2.9802                 3.6532
 IR Intens:      137.367                 13.895                  8.040
 Frequency:       504.53                 562.68                 583.67
 Force Cnst:      0.1644                 0.9378                 0.5956
 Red. Mass:       1.0960                 5.0275                 2.9671
 IR Intens:      149.840                  2.204                 55.209
 Frequency:       657.31                 717.35                 803.26
 Force Cnst:      1.1334                 0.4589                 0.8463
 Red. Mass:       4.4522                 1.5137                 2.2262
 IR Intens:       14.993                 67.971                 17.599
 Frequency:       832.22                 886.94                 954.06
 Force Cnst:      0.8565                 1.2617                 0.9811
 Red. Mass:       2.0989                 2.7222                 1.8295
 IR Intens:       12.110                  3.546                115.967
 Frequency:       970.58                 994.26                1003.58
 Force Cnst:      0.9034                 2.0736                 2.5539
 Red. Mass:       1.6277                 3.5602                 4.3037
 IR Intens:       23.871                192.400                 66.919
 Frequency:      1009.15                1028.12                1035.51
 Force Cnst:      0.8696                 1.6056                 1.4735
 Red. Mass:       1.4493                 2.5782                 2.3322
 IR Intens:       21.573                 27.851                 99.057
 Frequency:      1112.65                1169.25                1188.30
 Force Cnst:      1.0435                 0.9155                 1.0051
 Red. Mass:       1.4306                 1.1365                 1.2081
 IR Intens:        2.256                  2.915                 27.301
 Frequency:      1215.56                1246.57                1312.94
 Force Cnst:      1.6135                 1.1572                 1.6438
 Red. Mass:       1.8534                 1.2640                 1.6185
 IR Intens:       29.275                 92.143                 12.155
 Frequency:      1335.12                1355.98                1378.46
 Force Cnst:      1.4658                 1.8088                 1.3351
 Red. Mass:       1.3957                 1.6697                 1.1926
 IR Intens:        4.106                 14.742                 34.378
 Frequency:      1400.69                1434.50                1469.57
 Force Cnst:      1.4658                 2.0528                 2.8053
 Red. Mass:       1.2681                 1.6932                 2.2047
 IR Intens:       73.637                 39.202                  4.560
 Frequency:      1475.95                1561.70                1628.82
 Force Cnst:      1.4408                 5.1900                 9.3854
 Red. Mass:       1.1225                 3.6117                 6.0043
 IR Intens:       11.502                  2.230                  4.122
 Frequency:      2970.40                3058.85                3106.74
 Force Cnst:      5.6117                 5.8283                 6.3037
 Red. Mass:       1.0795                 1.0572                 1.1085
 IR Intens:       60.429                 57.348                 37.159
 Frequency:      3175.13                3184.23                3199.87
 Force Cnst:      6.4745                 6.4880                 6.6015
 Red. Mass:       1.0900                 1.0861                 1.0943
 IR Intens:       18.140                  6.315                 24.947
 Frequency:      3219.17                3706.46                3815.64
 Force Cnst:      6.6801                 8.6335                 9.1482
 Red. Mass:       1.0941                 1.0666                 1.0665
 IR Intens:       18.410                341.611                105.867

 STANDARD THERMODYNAMIC QUANTITIES AT   298.15 K  AND     1.00 ATM

   This Molecule has  0 Imaginary Frequencies
   Zero point vibrational energy:       92.640 kcal/mol

   Atom    1 Element C  Has Mass   12.00000
   Atom    2 Element C  Has Mass   12.00000
   Atom    3 Element C  Has Mass   12.00000
   Atom    4 Element C  Has Mass   12.00000
   Atom    5 Element C  Has Mass   12.00000
   Atom    6 Element C  Has Mass   12.00000
   Atom    7 Element C  Has Mass   12.00000
   Atom    8 Element H  Has Mass    1.00783
   Atom    9 Element H  Has Mass    1.00783
   Atom   10 Element H  Has Mass    1.00783
   Atom   11 Element H  Has Mass    1.00783
   Atom   12 Element H  Has Mass    1.00783
   Atom   13 Element H  Has Mass    1.00783
   Atom   14 Element O  Has Mass   15.99491
   Atom   15 Element H  Has Mass    1.00783
   Atom   16 Element H  Has Mass    1.00783
   Atom   17 Element O  Has Mass   15.99491
   Atom   18 Element H  Has Mass    1.00783
   Molecular Mass:   125.060290 amu
   Principal axes and moments of inertia in amu*Bohr^2:
                             1           2           3
    Eigenvalues --      626.81583  1309.57357  1785.73570
          X               0.52842     0.77800    -0.33983
          Y               0.68498    -0.15421     0.71205
          Z              -0.50157     0.60904     0.61441
   Rotational Symmetry Number is   1
   The Molecule is an Asymmetric Top
   Translational Enthalpy:        0.889 kcal/mol
   Rotational Enthalpy:           0.889 kcal/mol
   Vibrational Enthalpy:         96.201 kcal/mol
   gas constant (RT):             0.592 kcal/mol
   Translational Entropy:        40.384  cal/mol.K
   Rotational Entropy:           28.773  cal/mol.K
   Vibrational Entropy:          20.967  cal/mol.K

   Total Enthalpy:               98.570 kcal/mol
   Total Entropy:                90.125  cal/mol.K
 Total job time:  32370.40s(wall), 249530.60s(cpu)
        *  Thank you very much for using Q-Chem.  Have a nice day.  *
