 Q-Chem 5.4, Q-Chem, Inc., Pleasanton, CA (2021)
 Q-Chem 5.4.1 for Intel X86 EM64T Linux

User input:
--------------------------------------------------------------
$molecule
0 2
C        -0.2340398416   -0.1818054642    0.8635088093
C        -0.7682120374   -1.3487046194    1.6347479278
C        -1.8676640910   -2.0463403675    1.2404622020
C        -2.5768203955   -1.6903122477    0.0634403212
C        -2.1445566434   -0.5868414899   -0.7110140692
C        -1.0566073077    0.1573520187   -0.3543720067
C        -0.6397392189    1.3716605453   -1.1315864399
H        -0.2135956359    0.7071516507    1.5210011879
H        -0.2157307167   -1.6329939013    2.5267865356
H        -2.2105049494   -2.8936011884    1.8287442726
H        -3.4457964608   -2.2623515396   -0.2440846881
H        -2.7029098861   -0.3158427573   -1.6052279722
H        -1.3070074043    1.5300866941   -1.9866884558
O         0.7313764607    1.3053544212   -1.5721231050
H        -0.6840883084    2.2614902181   -0.4929216929
H         0.7821829382    0.5717253234   -2.2083368264
O         1.1346778040   -0.4926674290    0.5042640578
H         1.3848492941    0.1999439327   -0.1394138577
$end

$rem
BASIS = 6-311++G(2df,2p)
GUI = 2
JOB_TYPE = Optimization
METHOD = wB97M-V
SCF_ALGORITHM = DIIS_GDM
MAX_SCF_CYCLES = 400
GEOM_OPT_MAX_CYCLES = 150
SCF_CONVERGENCE = 7
THRESH = 12
UNRESTRICTED = 1
Solvent_method = SMD
$end
--------------------------------------------------------------

   19    -422.5349460517      5.07e-08  Convergence criterion met
 Total energy in the final basis set =     -422.5295756060
   17    -422.5355147968      5.95e-08  Convergence criterion met
 Total energy in the final basis set =     -422.5301034243
   16    -422.5355717699      9.33e-08  Convergence criterion met
 Total energy in the final basis set =     -422.5302041721
   16    -422.5356130868      7.15e-08  Convergence criterion met
 Total energy in the final basis set =     -422.5302327189
   16    -422.5356176610      9.39e-08  Convergence criterion met
 Total energy in the final basis set =     -422.5302362463
   16    -422.5356210633      9.45e-08  Convergence criterion met
 Total energy in the final basis set =     -422.5302398615

             Standard Nuclear Orientation (Angstroms)
    I     Atom           X                Y                Z
 ----------------------------------------------------------------
    1      C      -0.2376835175    -0.1868766794     0.8651685676
    2      C      -0.7859464092    -1.3313663487     1.6487257746
    3      C      -1.8715903710    -2.0334137723     1.2448649973
    4      C      -2.5546564403    -1.6972803595     0.0520717087
    5      C      -2.1208376217    -0.5979102812    -0.7185345119
    6      C      -1.0463006672     0.1517500152    -0.3538826039
    7      C      -0.6494284434     1.3756747990    -1.1179176645
    8      H      -0.1902444714     0.7039134205     1.5074795184
    9      H      -0.2573304035    -1.5961632032     2.5554423417
   10      H      -2.2252944928    -2.8664960001     1.8380369604
   11      H      -3.4101126729    -2.2755806696    -0.2649303589
   12      H      -2.6706277007    -0.3299508003    -1.6131804668
   13      H      -1.3360621313     1.5433431336    -1.9482411011
   14      O       0.7069303359     1.3180693122    -1.5985080721
   15      H      -0.6803695300     2.2480689068    -0.4632102700
   16      H       0.7501081228     0.6271633679    -2.2696827350
   17      O       1.1301526345    -0.5295022048     0.5118449510
   18      H       1.4151073799     0.1298611642    -0.1383608353
 ----------------------------------------------------------------

   16    -422.5356220603      9.43e-08  Convergence criterion met
 Total energy in the final basis set =     -422.5302403812
 Final energy is   -422.530240381229
 **  OPTIMIZATION CONVERGED  **

                    Orbital Energies (a.u.)
 --------------------------------------------------------------

 Alpha MOs
 -- Occupied --
-19.3429 -19.3320 -10.3983 -10.3877 -10.3547 -10.3524 -10.3476 -10.3438
-10.3426  -1.1630  -1.1447  -0.9776  -0.8966  -0.8653  -0.7979  -0.7368
 -0.7083  -0.6393  -0.6227  -0.6025  -0.5858  -0.5606  -0.5457  -0.5279
 -0.5222  -0.4981  -0.4787  -0.4529  -0.4418  -0.4399  -0.3942  -0.3826
 -0.3646  -0.2698

 Beta MOs
 -- Occupied --
-19.3423 -19.3303 -10.3990 -10.3881 -10.3494 -10.3463 -10.3453 -10.3448
-10.3423  -1.1610  -1.1416  -0.9709  -0.8907  -0.8560  -0.7972  -0.7276
 -0.7034  -0.6366  -0.6178  -0.6001  -0.5786  -0.5557  -0.5419  -0.5247
 -0.5194  -0.4933  -0.4753  -0.4390  -0.4382  -0.4249  -0.3905  -0.3792
 -0.3468

          Ground-State Mulliken Net Atomic Charges

     Atom                 Charge (a.u.)    Spin (a.u.)
  --------------------------------------------------------
      1 C                    -0.750897       0.023641
      2 C                     0.187110       0.341859
      3 C                    -0.554652      -0.127570
      4 C                    -0.263531       0.495662
      5 C                    -0.882607      -0.123536
      6 C                     0.972275       0.321769
      7 C                    -0.387352      -0.008857
      8 H                     0.213524       0.037245
      9 H                     0.311998      -0.009669
     10 H                     0.290205       0.005496
     11 H                     0.310252      -0.011709
     12 H                     0.267991       0.006808
     13 H                     0.241738       0.000124
     14 O                    -0.402272       0.005082
     15 H                     0.213128       0.014085
     16 H                     0.332960       0.000456
     17 O                    -0.437209       0.024507
     18 H                     0.337341       0.004606
  --------------------------------------------------------
  Sum of atomic charges =     0.000000

                    Cartesian Multipole Moments
 -----------------------------------------------------------------
    Charge (ESU x 10^10)
                 0.0000
    Dipole Moment (Debye)
         X      -3.4506      Y       0.6489      Z      -1.6552
       Tot       3.8817
    Quadrupole Moments (Debye-Ang)
        XX     -53.3366     XY       2.4752     YY     -55.4083
        XZ       1.1701     YZ       0.5471     ZZ     -47.8015

 Total job time:  2003.20s(wall), 15499.96s(cpu)
        *  Thank you very much for using Q-Chem.  Have a nice day.  *
