 Q-Chem 5.4, Q-Chem, Inc., Pleasanton, CA (2021)
 Q-Chem 5.4.1 for Intel X86 EM64T Linux

User input:
--------------------------------------------------------------
$molecule
0 2
C         0.8362394702   -0.6681514020   -0.6306477225
H         1.7651329885   -0.3798744668   -0.1368918618
H         0.6872968823    0.0495609770   -1.4752566625
O        -0.2685539262   -0.5777826738    0.2514970380
O         0.7696445387    1.3301087145   -2.6484583248
H         1.4672087822    1.7881300037   -2.1474608362
H        -0.2802905847    0.3092399403    0.6261923335
C         0.9399723577   -2.0497663924   -1.2004410987
C        -0.2020097447   -2.7699551489   -1.5426473336
H        -1.1798318164   -2.3396848699   -1.3722310521
C        -0.0898355621   -4.0356243578   -2.0997697725
H        -0.9821700168   -4.5896770512   -2.3586557269
C         1.1637147179   -4.5904522962   -2.3286019170
H         1.2493165954   -5.5765014705   -2.7650174289
C         2.3050060161   -3.8739787154   -1.9949876305
H         3.2836812244   -4.3016584249   -2.1667677019
C         2.1921867287   -2.6108387719   -1.4293305320
H         3.0819979489   -2.0557486938   -1.1594536697
$end

$rem
BASIS = 6-311++G(2df,2p)
GUI = 2
JOB_TYPE = Frequency
METHOD = wB97M-V
SOLVENT_METHOD = SMD
SCF_ALGORITHM = DIIS_GDM
MAX_SCF_CYCLES = 400
SCF_CONVERGENCE = 7
THRESH = 12
UNRESTRICTED = 1
SYMMETRY_IGNORE = 1
$end
--------------------------------------------------------------

   27    -422.5032247442      8.36e-08  Convergence criterion met
 Total energy in the final basis set =     -422.4970223715
   20    -422.5032229122      9.83e-08  Convergence criterion met
 Total energy in the final basis set =     -422.4970207707
   20    -422.5032246250      8.14e-08  Convergence criterion met
 Total energy in the final basis set =     -422.4970218745
   22    -422.5032253173      6.23e-08  Convergence criterion met
 Total energy in the final basis set =     -422.4970221144
   21    -422.5032224008      9.05e-08  Convergence criterion met
 Total energy in the final basis set =     -422.4970208448
   20    -422.5032245919      8.99e-08  Convergence criterion met
 Total energy in the final basis set =     -422.4970212060
   22    -422.5032232668      7.33e-08  Convergence criterion met
 Total energy in the final basis set =     -422.4970218121
   20    -422.5032246721      7.95e-08  Convergence criterion met
 Total energy in the final basis set =     -422.4970219673
   20    -422.5032240228      8.15e-08  Convergence criterion met
 Total energy in the final basis set =     -422.4970219307
   20    -422.5032245121      8.66e-08  Convergence criterion met
 Total energy in the final basis set =     -422.4970219088
   20    -422.5032240453      7.43e-08  Convergence criterion met
 Total energy in the final basis set =     -422.4970219014
   20    -422.5032247892      7.46e-08  Convergence criterion met
 Total energy in the final basis set =     -422.4970221776
   20    -422.5032242331      7.43e-08  Convergence criterion met
 Total energy in the final basis set =     -422.4970220990
   20    -422.5032247976      7.47e-08  Convergence criterion met
 Total energy in the final basis set =     -422.4970222811
   20    -422.5032245117      7.40e-08  Convergence criterion met
 Total energy in the final basis set =     -422.4970222826

                    Orbital Energies (a.u.)
 --------------------------------------------------------------

 Alpha MOs
 -- Occupied --
-19.3905 -19.3443 -10.3964 -10.3542 -10.3438 -10.3435 -10.3432 -10.3427
-10.3423  -1.1643  -1.1342  -0.9887  -0.8948  -0.8704  -0.7992  -0.7242
 -0.6983  -0.6369  -0.6234  -0.5933  -0.5776  -0.5601  -0.5427  -0.5284
 -0.5200  -0.5073  -0.4813  -0.4647  -0.4567  -0.4396  -0.4311  -0.3908
 -0.3479  -0.3354

 Beta MOs
 -- Occupied --
-19.3679 -19.3436 -10.3941 -10.3544 -10.3437 -10.3435 -10.3432 -10.3426
-10.3421  -1.1625  -1.0727  -0.9884  -0.8936  -0.8702  -0.7956  -0.7240
 -0.6970  -0.6320  -0.6228  -0.5780  -0.5595  -0.5552  -0.5381  -0.5268
 -0.5195  -0.4807  -0.4703  -0.4393  -0.4325  -0.4273  -0.3934  -0.3473
 -0.3390

          Ground-State Mulliken Net Atomic Charges

     Atom                 Charge (a.u.)    Spin (a.u.)
  --------------------------------------------------------
      1 C                    -0.632521       0.115140
      2 H                     0.239454       0.000246
      3 H                     0.286528      -0.033905
      4 O                    -0.383017       0.022405
      5 O                    -0.411466       0.885410
      6 H                     0.337688      -0.013255
      7 H                     0.335646      -0.000230
      8 C                     0.579758       0.013114
      9 C                     0.171341       0.000263
     10 H                     0.277706      -0.000335
     11 C                    -0.347463      -0.008458
     12 H                     0.284517       0.000105
     13 C                    -0.445127       0.014643
     14 H                     0.277185      -0.000312
     15 C                    -0.309710      -0.007631
     16 H                     0.289279       0.000195
     17 C                    -0.815432       0.013228
     18 H                     0.265634      -0.000623
  --------------------------------------------------------
  Sum of atomic charges =    -0.000000

                    Cartesian Multipole Moments
 -----------------------------------------------------------------
    Charge (ESU x 10^10)
                -0.0000
    Dipole Moment (Debye)
         X       2.8708      Y       1.9106      Z       1.3897
       Tot       3.7179
    Quadrupole Moments (Debye-Ang)
        XX     -45.5250     XY       1.5681     YY     -47.6995
        XZ      -1.9287     YZ       5.9516     ZZ     -63.4486

             Standard Nuclear Orientation (Angstroms)
    I     Atom           X                Y                Z
 ----------------------------------------------------------------
    1      C       0.8362394702    -0.6681514020    -0.6306477225
    2      H       1.7651329885    -0.3798744668    -0.1368918618
    3      H       0.6872968823     0.0495609770    -1.4752566625
    4      O      -0.2685539262    -0.5777826738     0.2514970380
    5      O       0.7696445387     1.3301087145    -2.6484583248
    6      H       1.4672087822     1.7881300037    -2.1474608362
    7      H      -0.2802905847     0.3092399403     0.6261923335
    8      C       0.9399723577    -2.0497663924    -1.2004410987
    9      C      -0.2020097447    -2.7699551489    -1.5426473336
   10      H      -1.1798318164    -2.3396848699    -1.3722310521
   11      C      -0.0898355621    -4.0356243578    -2.0997697725
   12      H      -0.9821700168    -4.5896770512    -2.3586557269
   13      C       1.1637147179    -4.5904522962    -2.3286019170
   14      H       1.2493165954    -5.5765014705    -2.7650174289
   15      C       2.3050060161    -3.8739787154    -1.9949876305
   16      H       3.2836812244    -4.3016584249    -2.1667677019
   17      C       2.1921867287    -2.6108387719    -1.4293305320
   18      H       3.0819979489    -2.0557486938    -1.1594536697
 ----------------------------------------------------------------

 Frequency:      -147.75                 -19.41                  21.70
 Force Cnst:      0.1194                 0.0013                 0.0015
 Red. Mass:       9.2857                 5.8687                 5.2319
 IR Intens:      142.694                  1.224                  1.557
 Frequency:        62.45                 156.23                 173.03
 Force Cnst:      0.0068                 0.0159                 0.0602
 Red. Mass:       2.9523                 1.1024                 3.4103
 IR Intens:       18.555                182.734                 31.786
 Frequency:       248.76                 305.67                 397.07
 Force Cnst:      0.0722                 0.0716                 0.3616
 Red. Mass:       1.9795                 1.3000                 3.8925
 IR Intens:       56.663                218.464                  4.879
 Frequency:       414.00                 474.75                 562.79
 Force Cnst:      0.2880                 0.3812                 0.2458
 Red. Mass:       2.8522                 2.8707                 1.3172
 IR Intens:        0.252                  7.938                203.153
 Frequency:       600.02                 627.30                 717.99
 Force Cnst:      0.7325                 1.4602                 0.5494
 Red. Mass:       3.4534                 6.2982                 1.8089
 IR Intens:       35.265                  1.844                 74.923
 Frequency:       767.32                 814.79                 875.16
 Force Cnst:      0.5950                 1.3656                 0.5645
 Red. Mass:       1.7153                 3.4912                 1.2509
 IR Intens:       58.858                 33.614                  0.139
 Frequency:       943.43                1015.57                1017.61
 Force Cnst:      0.6992                 0.9194                 2.4021
 Red. Mass:       1.3333                 1.5129                 3.9371
 IR Intens:        4.506                  0.193                  0.473
 Frequency:      1033.81                1039.06                1056.02
 Force Cnst:      0.9262                 1.0233                 1.4048
 Red. Mass:       1.4709                 1.6087                 2.1381
 IR Intens:        3.685                  7.858                 13.801
 Frequency:      1104.05                1156.68                1161.02
 Force Cnst:      1.0894                 2.1547                 0.9084
 Red. Mass:       1.5170                 2.7335                 1.1439
 IR Intens:       31.831                102.628                  1.019
 Frequency:      1188.07                1216.66                1242.46
 Force Cnst:      0.9288                 1.5396                 1.0073
 Red. Mass:       1.1169                 1.7652                 1.1075
 IR Intens:        3.647                316.791                  2.848
 Frequency:      1247.16                1316.16                1351.17
 Force Cnst:      1.6542                 4.4418                 1.4311
 Red. Mass:       1.8051                 4.3520                 1.3305
 IR Intens:       10.445                  6.236                  4.314
 Frequency:      1407.38                1445.38                1491.13
 Force Cnst:      1.2946                 1.9217                 2.9556
 Red. Mass:       1.1093                 1.5612                 2.2562
 IR Intens:      272.246                 30.330                 17.218
 Frequency:      1539.66                1655.43                1675.83
 Force Cnst:      3.4753                 9.9223                10.1013
 Red. Mass:       2.4883                 6.1453                 6.1047
 IR Intens:        6.485                  0.440                  0.216
 Frequency:      2453.29                3080.88                3182.83
 Force Cnst:      3.8160                 6.0650                 6.4917
 Red. Mass:       1.0761                 1.0845                 1.0876
 IR Intens:     3761.703                 42.808                  6.794
 Frequency:      3189.27                3197.60                3205.25
 Force Cnst:      6.5179                 6.5736                 6.6275
 Red. Mass:       1.0876                 1.0912                 1.0949
 IR Intens:        0.384                 14.610                 35.203
 Frequency:      3213.24                3734.92                3835.12
 Force Cnst:      6.6841                 8.7707                 9.2441
 Red. Mass:       1.0988                 1.0671                 1.0667
 IR Intens:       16.288                127.436                126.678

 STANDARD THERMODYNAMIC QUANTITIES AT   298.15 K  AND     1.00 ATM

   This Molecule has  2 Imaginary Frequencies
   Zero point vibrational energy:       89.513 kcal/mol

   Atom    1 Element C  Has Mass   12.00000
   Atom    2 Element H  Has Mass    1.00783
   Atom    3 Element H  Has Mass    1.00783
   Atom    4 Element O  Has Mass   15.99491
   Atom    5 Element O  Has Mass   15.99491
   Atom    6 Element H  Has Mass    1.00783
   Atom    7 Element H  Has Mass    1.00783
   Atom    8 Element C  Has Mass   12.00000
   Atom    9 Element C  Has Mass   12.00000
   Atom   10 Element H  Has Mass    1.00783
   Atom   11 Element C  Has Mass   12.00000
   Atom   12 Element H  Has Mass    1.00783
   Atom   13 Element C  Has Mass   12.00000
   Atom   14 Element H  Has Mass    1.00783
   Atom   15 Element C  Has Mass   12.00000
   Atom   16 Element H  Has Mass    1.00783
   Atom   17 Element C  Has Mass   12.00000
   Atom   18 Element H  Has Mass    1.00783
   Molecular Mass:   125.060290 amu
   Principal axes and moments of inertia in amu*Bohr^2:
                             1           2           3
    Eigenvalues --      721.65115  1993.81089  2183.38747
          X              -0.14813     0.75118     0.64326
          Y               0.97589     0.21646    -0.02804
          Z               0.16030    -0.62360     0.76513
   Rotational Symmetry Number is   1
   The Molecule is an Asymmetric Top
   Translational Enthalpy:        0.889 kcal/mol
   Rotational Enthalpy:           0.889 kcal/mol
   Vibrational Enthalpy:         93.209 kcal/mol
   gas constant (RT):             0.592 kcal/mol
   Translational Entropy:        40.384  cal/mol.K
   Rotational Entropy:           29.531  cal/mol.K
   Vibrational Entropy:          24.778  cal/mol.K

   Total Enthalpy:               95.579 kcal/mol
   Total Entropy:                94.694  cal/mol.K
 Total job time:  32314.35s(wall), 250987.60s(cpu)
        *  Thank you very much for using Q-Chem.  Have a nice day.  *
