 Q-Chem 5.4, Q-Chem, Inc., Pleasanton, CA (2021)
 Q-Chem 5.4.1 for Intel X86 EM64T Linux

User input:
--------------------------------------------------------------
$molecule
0 2
C    0.8157265   -0.7087273   -0.6711115
H    1.7526203   -0.2528968   -0.4466860
H    0.3841453    0.4275265   -1.5879297
O   -0.1386816   -0.6773236    0.3005009
O    0.6927367    1.6815182   -2.1568811
H    1.6385810    1.5774485   -2.1725790
H   -0.1930153    0.2545554    0.6364023
C    0.9208820   -2.0638626   -1.2791431
C   -0.2255977   -2.7980496   -1.6203921
H   -1.1776113   -2.3526513   -1.5057865
C   -0.0866896   -4.0882388   -2.1198436
H   -0.9614743   -4.6506387   -2.3859145
C    1.1835515   -4.6652357   -2.2762059
H    1.2724438   -5.6606487   -2.6380923
C    2.3081852   -3.9107716   -1.9423300
H    3.2986469   -4.3668201   -2.0590392
C    2.1926923   -2.6333610   -1.4596363
H    3.0615649   -2.0544779   -1.1942623
$end

$rem
BASIS = 6-311++G(2df,2p)
GUI = 2
JOB_TYPE = Frequency
METHOD = wB97M-V
SCF_ALGORITHM = DIIS_GDM
MAX_SCF_CYCLES = 400
GEOM_OPT_MAX_CYCLES = 150
SCF_CONVERGENCE = 6
THRESH = 11
SYMMETRY_IGNORE = 1
UNRESTRICTED = 1
solvent_method = SMD
$end

--------------------------------------------------------------

   17    -422.4952954567      8.66e-07  Convergence criterion met
 Total energy in the final basis set =     -422.4887023860
   15    -422.4952642875      8.11e-07  Convergence criterion met
 Total energy in the final basis set =     -422.4886769687
   15    -422.4953245083      6.62e-07  Convergence criterion met
 Total energy in the final basis set =     -422.4887257192
   15    -422.4952532359      6.58e-07  Convergence criterion met
 Total energy in the final basis set =     -422.4886598937
   16    -422.4953363343      6.81e-07  Convergence criterion met
 Total energy in the final basis set =     -422.4887435379
   14    -422.4952765767      9.57e-07  Convergence criterion met
 Total energy in the final basis set =     -422.4886761575
   15    -422.4953131322      8.18e-07  Convergence criterion met
 Total energy in the final basis set =     -422.4887274434
   15    -422.4953170688      7.45e-07  Convergence criterion met
 Frequency:     -1787.14                -465.89                  38.46
 Force Cnst:      1.9947                 0.1364                 0.0037
 Red. Mass:       1.0600                 1.0667                 4.2289
 IR Intens:      777.874                185.651                  3.269
 Frequency:       105.63                 171.11                 179.00
 Force Cnst:      0.0354                 0.0781                 0.0967
 Red. Mass:       5.3789                 4.5261                 5.1223
 IR Intens:        4.380                  4.194                  6.244
 Frequency:       222.28                 351.87                 400.39
 Force Cnst:      0.2069                 0.2458                 0.2528
 Red. Mass:       7.1068                 3.3702                 2.6762
 IR Intens:       32.185                 11.660                  2.187
 Frequency:       428.15                 499.83                 598.63
 Force Cnst:      0.2488                 0.4525                 0.5627
 Red. Mass:       2.3033                 3.0739                 2.6653
 IR Intens:       15.294                 24.553                178.941
 Frequency:       615.53                 632.95                 655.67
 Force Cnst:      1.0540                 0.4211                 0.3412
 Red. Mass:       4.7216                 1.7838                 1.3471
 IR Intens:        3.747                 98.517                 81.004
 Frequency:       729.76                 773.70                 810.83
 Force Cnst:      0.3671                 0.8134                 1.4973
 Red. Mass:       1.1701                 2.3063                 3.8653
 IR Intens:      166.912                 93.009                 37.146
 Frequency:       826.93                 894.87                 934.77
 Force Cnst:      0.5468                 0.6600                 0.8164
 Red. Mass:       1.3572                 1.3988                 1.5858
 IR Intens:        3.500                 76.015                 27.088
 Frequency:       981.75                1011.10                1031.42
 Force Cnst:      0.8169                 3.4974                 1.2431
 Red. Mass:       1.4385                 5.8063                 1.9833
 IR Intens:        1.112                  2.646                 11.658
 Frequency:      1049.21                1076.68                1125.10
 Force Cnst:      0.8497                 1.0353                 0.8393
 Red. Mass:       1.3101                 1.5158                 1.1254
 IR Intens:        1.683                 32.206                 13.276
 Frequency:      1152.10                1171.99                1182.00
 Force Cnst:      2.2754                 1.1963                 0.9394
 Red. Mass:       2.9096                 1.4782                 1.1412
 IR Intens:      120.547                 74.308                204.004
 Frequency:      1208.29                1248.37                1289.20
 Force Cnst:      1.1610                 1.6455                 3.5648
 Red. Mass:       1.3497                 1.7921                 3.6404
 IR Intens:       22.732                169.918                 11.230
 Frequency:      1337.00                1418.41                1445.41
 Force Cnst:      1.4546                 1.2471                 1.6845
 Red. Mass:       1.3811                 1.0521                 1.3684
 IR Intens:       35.459                 73.548                116.907
 Frequency:      1480.33                1510.38                1609.16
 Force Cnst:      3.2469                 3.0307                 9.2581
 Red. Mass:       2.5148                 2.2549                 6.0684
 IR Intens:       19.855                  3.151                  0.584
 Frequency:      1667.11                3064.56                3242.63
 Force Cnst:      9.6579                 6.0421                 6.7685
 Red. Mass:       5.8980                 1.0919                 1.0926
 IR Intens:       19.910                 21.884                  6.982
 Frequency:      3276.53                3326.69                3382.47
 Force Cnst:      6.9018                 7.0872                 7.3657
 Red. Mass:       1.0911                 1.0869                 1.0927
 IR Intens:       15.239                 49.889                  8.010
 Frequency:      3435.55                3462.36                4001.62
 Force Cnst:      7.5908                 7.5266                10.0666
 Red. Mass:       1.0916                 1.0656                 1.0670
 IR Intens:        3.283                228.521                 97.520

 STANDARD THERMODYNAMIC QUANTITIES AT   298.15 K  AND     1.00 ATM

   This Molecule has  2 Imaginary Frequencies
   Zero point vibrational energy:       87.286 kcal/mol

   Atom    1 Element C  Has Mass   12.00000
   Atom    2 Element H  Has Mass    1.00783
   Atom    3 Element H  Has Mass    1.00783
   Atom    4 Element O  Has Mass   15.99491
   Atom    5 Element O  Has Mass   15.99491
   Atom    6 Element H  Has Mass    1.00783
   Atom    7 Element H  Has Mass    1.00783
   Atom    8 Element C  Has Mass   12.00000
   Atom    9 Element C  Has Mass   12.00000
   Atom   10 Element H  Has Mass    1.00783
   Atom   11 Element C  Has Mass   12.00000
   Atom   12 Element H  Has Mass    1.00783
   Atom   13 Element C  Has Mass   12.00000
   Atom   14 Element H  Has Mass    1.00783
   Atom   15 Element C  Has Mass   12.00000
   Atom   16 Element H  Has Mass    1.00783
   Atom   17 Element C  Has Mass   12.00000
   Atom   18 Element H  Has Mass    1.00783
   Molecular Mass:   125.060290 amu
   Principal axes and moments of inertia in amu*Bohr^2:
                             1           2           3
    Eigenvalues --      641.77169  2137.92368  2308.94765
          X              -0.13328     0.86810     0.47817
          Y               0.97545     0.20024    -0.09164
          Z               0.17531    -0.45422     0.87347
   Rotational Symmetry Number is   1
   The Molecule is an Asymmetric Top
   Translational Enthalpy:        0.889 kcal/mol
   Rotational Enthalpy:           0.889 kcal/mol
   Vibrational Enthalpy:         90.948 kcal/mol
   gas constant (RT):             0.592 kcal/mol
   Translational Entropy:        40.384  cal/mol.K
   Rotational Entropy:           29.539  cal/mol.K
   Vibrational Entropy:          22.626  cal/mol.K

   Total Enthalpy:               93.318 kcal/mol
   Total Entropy:                92.549  cal/mol.K
 Total job time:  14744.62s(wall), 210517.26s(cpu)
        *  Thank you very much for using Q-Chem.  Have a nice day.  *
 Q-Chem 5.4, Q-Chem, Inc., Pleasanton, CA (2021)
 Q-Chem 5.4.1 for Intel X86 EM64T Linux

User input:
--------------------------------------------------------------

$rem
JOBTYPE = ts
SCF_GUESS = read
GEOM_OPT_HESSIAN = read
MAX_SCF_CYCLES = 350
GEOM_OPT_DMAX = 60
GEOM_OPT_MAX_CYCLES = 250
METHOD = wB97M-v
BASIS = 6-311++G(2df,2p)
UNRESTRICTED = 1
SCF_CONVERGENCE = 7
THRESH = 12
SCF_ALGORITHM = DIIS_GDM
solvent_method = SMD
$end

$molecule
read
$end

--------------------------------------------------------------

   21    -422.5032243600      6.29e-08  Convergence criterion met
 Total energy in the final basis set =     -422.4970273888
   22    -422.5032222615      2.95e-08  Convergence criterion met
 Total energy in the final basis set =     -422.4970231535
   21    -422.5032226021      9.59e-08  Convergence criterion met
 Total energy in the final basis set =     -422.4970233761
   21    -422.5032223095      8.37e-08  Convergence criterion met
 Total energy in the final basis set =     -422.4970198186
   21    -422.5032263632      9.08e-08  Convergence criterion met
 Total energy in the final basis set =     -422.4970209707
   21    -422.5032252596      7.10e-08  Convergence criterion met
 Total energy in the final basis set =     -422.4970218051

             Standard Nuclear Orientation (Angstroms)
    I     Atom           X                Y                Z
 ----------------------------------------------------------------
    1      C       0.8362394702    -0.6681514020    -0.6306477225
    2      H       1.7651329885    -0.3798744668    -0.1368918618
    3      H       0.6872968823     0.0495609770    -1.4752566625
    4      O      -0.2685539262    -0.5777826738     0.2514970380
    5      O       0.7696445387     1.3301087145    -2.6484583248
    6      H       1.4672087822     1.7881300037    -2.1474608362
    7      H      -0.2802905847     0.3092399403     0.6261923335
    8      C       0.9399723577    -2.0497663924    -1.2004410987
    9      C      -0.2020097447    -2.7699551489    -1.5426473336
   10      H      -1.1798318164    -2.3396848699    -1.3722310521
   11      C      -0.0898355621    -4.0356243578    -2.0997697725
   12      H      -0.9821700168    -4.5896770512    -2.3586557269
   13      C       1.1637147179    -4.5904522962    -2.3286019170
   14      H       1.2493165954    -5.5765014705    -2.7650174289
   15      C       2.3050060161    -3.8739787154    -1.9949876305
   16      H       3.2836812244    -4.3016584249    -2.1667677019
   17      C       2.1921867287    -2.6108387719    -1.4293305320
   18      H       3.0819979489    -2.0557486938    -1.1594536697
 ----------------------------------------------------------------

   20    -422.5032247431      9.62e-08  Convergence criterion met
 Total energy in the final basis set =     -422.4970223705
 Final energy is   -422.497022370522
 **  OPTIMIZATION CONVERGED  **

                    Orbital Energies (a.u.)
 --------------------------------------------------------------

 Alpha MOs
 -- Occupied --
-19.3905 -19.3443 -10.3964 -10.3542 -10.3439 -10.3435 -10.3432 -10.3427
-10.3423  -1.1643  -1.1342  -0.9887  -0.8948  -0.8704  -0.7992  -0.7242
 -0.6983  -0.6369  -0.6234  -0.5933  -0.5776  -0.5601  -0.5427  -0.5284
 -0.5200  -0.5073  -0.4813  -0.4647  -0.4567  -0.4396  -0.4311  -0.3908
 -0.3479  -0.3354

 Beta MOs
 -- Occupied --
-19.3679 -19.3436 -10.3941 -10.3543 -10.3437 -10.3435 -10.3432 -10.3426
-10.3421  -1.1625  -1.0727  -0.9884  -0.8936  -0.8702  -0.7956  -0.7240
 -0.6970  -0.6320  -0.6228  -0.5780  -0.5594  -0.5552  -0.5381  -0.5268
 -0.5194  -0.4807  -0.4703  -0.4393  -0.4325  -0.4273  -0.3934  -0.3473
 -0.3390

          Ground-State Mulliken Net Atomic Charges

     Atom                 Charge (a.u.)    Spin (a.u.)
  --------------------------------------------------------
      1 C                    -0.632415       0.115135
      2 H                     0.239440       0.000246
      3 H                     0.286521      -0.033906
      4 O                    -0.383016       0.022404
      5 O                    -0.411463       0.885415
      6 H                     0.337690      -0.013255
      7 H                     0.335645      -0.000230
      8 C                     0.579824       0.013124
      9 C                     0.171452       0.000264
     10 H                     0.277719      -0.000335
     11 C                    -0.347527      -0.008458
     12 H                     0.284514       0.000105
     13 C                    -0.445150       0.014642
     14 H                     0.277190      -0.000312
     15 C                    -0.309922      -0.007631
     16 H                     0.289287       0.000195
     17 C                    -0.815335       0.013217
     18 H                     0.265545      -0.000621
  --------------------------------------------------------
  Sum of atomic charges =    -0.000000

                    Cartesian Multipole Moments
 -----------------------------------------------------------------
    Charge (ESU x 10^10)
                -0.0000
    Dipole Moment (Debye)
         X       2.8705      Y       1.9103      Z       1.3904
       Tot       3.7179
    Quadrupole Moments (Debye-Ang)
        XX     -45.5266     XY       1.5680     YY     -47.6978
        XZ      -1.9256     YZ       5.9507     ZZ     -63.4502

 Total job time:  11224.57s(wall), 160577.44s(cpu)
        *  Thank you very much for using Q-Chem.  Have a nice day.  *
