 Q-Chem 5.4, Q-Chem, Inc., Pleasanton, CA (2021)
 Q-Chem 5.4.1 for Intel X86 EM64T Linux

User input:
--------------------------------------------------------------
$molecule
0 2
C        -1.3208393457    0.2598367185    0.5758233778
O        -2.2812278712   -0.5536591596   -0.2013951577
O        -3.4178386926    0.0567965551   -0.3874159016
C        -0.4474771055    1.0617248484   -0.3813983262
C         0.5721678738    0.2083175577   -1.0791779162
C         1.0813756307   -0.8590596951   -0.4684424870
C         0.5935371864   -1.2469686883    0.8598764867
C        -0.5178376997   -0.7201539130    1.3755913678
H        -1.9279166443    0.9229479354    1.1839985604
H         0.0930887949    1.7665481932    0.2602450180
H         0.9160967714    0.5374380312   -2.0513125150
H         1.8619585168   -1.4490442788   -0.9282190891
H         1.1456988295   -1.9953446307    1.4127211188
H        -0.9102138727   -1.0391133490    2.3308099416
O        -1.2105484191    1.8600454599   -1.2696380911
H        -1.6362893525    1.2867230149   -1.9179745872
$end

$rem
BASIS = 6-311++G(2df,2p)
GUI = 2
JOB_TYPE = Frequency
METHOD = wB97M-V
SOLVENT_METHOD = SMD
SCF_ALGORITHM = DIIS_GDM
MAX_SCF_CYCLES = 400
SCF_CONVERGENCE = 7
THRESH = 12
$end
--------------------------------------------------------------

   23    -458.3559593374      5.22e-08  Convergence criterion met
 Total energy in the final basis set =     -458.3520218483
   18    -458.3559581714      6.16e-08  Convergence criterion met
 Total energy in the final basis set =     -458.3520209809
   18    -458.3559587840      7.79e-08  Convergence criterion met
 Total energy in the final basis set =     -458.3520209942
   18    -458.3559584812      6.38e-08  Convergence criterion met
 Total energy in the final basis set =     -458.3520208583
   18    -458.3559583525      8.66e-08  Convergence criterion met
 Total energy in the final basis set =     -458.3520209947
   18    -458.3559583728      6.91e-08  Convergence criterion met
 Total energy in the final basis set =     -458.3520210346
   18    -458.3559586026      7.23e-08  Convergence criterion met
 Total energy in the final basis set =     -458.3520209595
   18    -458.3559583662      8.96e-08  Convergence criterion met
 Total energy in the final basis set =     -458.3520211751
   18    -458.3559578462      6.15e-08  Convergence criterion met
 Total energy in the final basis set =     -458.3520209981
   18    -458.3559586861      6.45e-08  Convergence criterion met
 Total energy in the final basis set =     -458.3520215604
   18    -458.3559595719      6.23e-08  Convergence criterion met
 Total energy in the final basis set =     -458.3520217195
   18    -458.3559592373      6.37e-08  Convergence criterion met
 Total energy in the final basis set =     -458.3520214985
   18    -458.3559586781      6.30e-08  Convergence criterion met
 Total energy in the final basis set =     -458.3520214383
   18    -458.3559581899      6.32e-08  Convergence criterion met
 Total energy in the final basis set =     -458.3520215226
   18    -458.3559595763      6.31e-08  Convergence criterion met
 Total energy in the final basis set =     -458.3520212656

                    Orbital Energies (a.u.)
 --------------------------------------------------------------

 Alpha MOs
 -- Occupied --
-19.4613 -19.4145 -19.3460 -10.4108 -10.4084 -10.3568 -10.3505 -10.3495
-10.3475  -1.3398  -1.1685  -1.0278  -0.9591  -0.8749  -0.8592  -0.7515
 -0.7266  -0.6693  -0.6494  -0.6339  -0.6187  -0.5884  -0.5590  -0.5557
 -0.5452  -0.5250  -0.4854  -0.4559  -0.4482  -0.4318  -0.4138  -0.4059
 -0.3773  -0.3281

 Beta MOs
 -- Occupied --
-19.4506 -19.3960 -19.3459 -10.4112 -10.4080 -10.3568 -10.3504 -10.3494
-10.3475  -1.3133  -1.1681  -1.0084  -0.9464  -0.8737  -0.8519  -0.7469
 -0.7256  -0.6602  -0.6433  -0.6197  -0.5897  -0.5840  -0.5560  -0.5463
 -0.5264  -0.5073  -0.4817  -0.4537  -0.4451  -0.4257  -0.3994  -0.3865
 -0.3266

          Ground-State Mulliken Net Atomic Charges

     Atom                 Charge (a.u.)    Spin (a.u.)
  --------------------------------------------------------
      1 C                    -0.273525      -0.005510
      2 O                     0.089681       0.320814
      3 O                    -0.251249       0.661256
      4 C                    -0.284193       0.021498
      5 C                    -0.070448      -0.001866
      6 C                    -0.323985      -0.000543
      7 C                    -0.301579       0.003277
      8 C                    -0.193662      -0.000665
      9 H                     0.293752       0.001057
     10 H                     0.221172       0.000875
     11 H                     0.294315       0.000183
     12 H                     0.284790      -0.000030
     13 H                     0.284872       0.000149
     14 H                     0.299508      -0.000017
     15 O                    -0.408366       0.001743
     16 H                     0.338917      -0.002223
  --------------------------------------------------------
  Sum of atomic charges =     0.000000

                    Cartesian Multipole Moments
 -----------------------------------------------------------------
    Charge (ESU x 10^10)
                 0.0000
    Dipole Moment (Debye)
         X       4.0673      Y      -1.3536      Z       1.4234
       Tot       4.5168
    Quadrupole Moments (Debye-Ang)
        XX     -64.7456     XY      -1.4241     YY     -57.1878
        XZ      -3.7984     YZ       0.3816     ZZ     -46.5066

             Standard Nuclear Orientation (Angstroms)
    I     Atom           X                Y                Z
 ----------------------------------------------------------------
    1      C      -1.3208393457     0.2598367185     0.5758233778
    2      O      -2.2812278712    -0.5536591596    -0.2013951577
    3      O      -3.4178386926     0.0567965551    -0.3874159016
    4      C      -0.4474771055     1.0617248484    -0.3813983262
    5      C       0.5721678738     0.2083175577    -1.0791779162
    6      C       1.0813756307    -0.8590596951    -0.4684424870
    7      C       0.5935371864    -1.2469686883     0.8598764867
    8      C      -0.5178376997    -0.7201539130     1.3755913678
    9      H      -1.9279166443     0.9229479354     1.1839985604
   10      H       0.0930887949     1.7665481932     0.2602450180
   11      H       0.9160967714     0.5374380312    -2.0513125150
   12      H       1.8619585168    -1.4490442788    -0.9282190891
   13      H       1.1456988295    -1.9953446307     1.4127211188
   14      H      -0.9102138727    -1.0391133490     2.3308099416
   15      O      -1.2105484191     1.8600454599    -1.2696380911
   16      H      -1.6362893525     1.2867230149    -1.9179745872
 ----------------------------------------------------------------

 Frequency:        82.43                 116.38                 182.15
 Force Cnst:      0.0221                 0.0780                 0.0867
 Red. Mass:       5.5270                 9.7751                 4.4368
 IR Intens:        1.970                  2.256                  2.790
 Frequency:       245.88                 344.18                 396.42
 Force Cnst:      0.2876                 0.1515                 0.2265
 Red. Mass:       8.0752                 2.1704                 2.4461
 IR Intens:        5.282                 23.170                 15.030
 Frequency:       412.99                 419.59                 494.56
 Force Cnst:      0.2098                 0.3385                 0.6037
 Red. Mass:       2.0876                 3.2637                 4.1895
 IR Intens:      153.194                 56.161                 15.160
 Frequency:       514.50                 609.14                 651.11
 Force Cnst:      0.5826                 0.9148                 0.6535
 Red. Mass:       3.7355                 4.1843                 2.6164
 IR Intens:        1.676                 28.491                 20.954
 Frequency:       741.65                 794.53                 807.30
 Force Cnst:      0.7378                 0.5821                 1.2179
 Red. Mass:       2.2767                 1.5651                 3.1718
 IR Intens:       76.429                 10.121                110.459
 Frequency:       936.16                 968.01                 979.23
 Force Cnst:      2.0411                 1.4388                 1.9617
 Red. Mass:       3.9530                 2.6060                 3.4722
 IR Intens:       43.076                  6.887                 12.451
 Frequency:      1016.34                1018.52                1032.32
 Force Cnst:      0.8815                 1.1247                 0.8543
 Red. Mass:       1.4484                 1.8401                 1.3606
 IR Intens:        5.556                 29.076                  1.117
 Frequency:      1114.86                1166.59                1173.96
 Force Cnst:      1.1838                 0.9171                 1.2545
 Red. Mass:       1.6166                 1.1438                 1.5449
 IR Intens:       42.183                  2.001                125.898
 Frequency:      1189.69                1270.45                1275.38
 Force Cnst:      1.1186                 2.4282                 3.0045
 Red. Mass:       1.3414                 2.5534                 3.1351
 IR Intens:       67.388                 10.851                  4.140
 Frequency:      1313.63                1332.83                1352.22
 Force Cnst:      1.3832                 1.7502                 1.5687
 Red. Mass:       1.3604                 1.6722                 1.4561
 IR Intens:       11.321                  1.816                 37.123
 Frequency:      1382.36                1415.94                1441.04
 Force Cnst:      1.4953                 1.7892                 2.2339
 Red. Mass:       1.3281                 1.5146                 1.8258
 IR Intens:       11.182                 59.040                 69.420
 Frequency:      1678.45                1730.70                3034.82
 Force Cnst:     13.5834                10.6742                 5.8725
 Red. Mass:       8.1836                 6.0484                 1.0822
 IR Intens:        5.844                  3.872                 16.559
 Frequency:      3149.97                3190.60                3196.15
 Force Cnst:      6.3598                 6.5165                 6.5525
 Red. Mass:       1.0879                 1.0865                 1.0887
 IR Intens:        7.452                  0.732                  8.266
 Frequency:      3211.48                3218.07                3810.47
 Force Cnst:      6.6702                 6.7099                 9.1257
 Red. Mass:       1.0977                 1.0997                 1.0667
 IR Intens:       16.874                 11.221                112.458

 STANDARD THERMODYNAMIC QUANTITIES AT   298.15 K  AND     1.00 ATM

   This Molecule has  0 Imaginary Frequencies
   Zero point vibrational energy:       77.787 kcal/mol

   Atom    1 Element C  Has Mass   12.00000
   Atom    2 Element O  Has Mass   15.99491
   Atom    3 Element O  Has Mass   15.99491
   Atom    4 Element C  Has Mass   12.00000
   Atom    5 Element C  Has Mass   12.00000
   Atom    6 Element C  Has Mass   12.00000
   Atom    7 Element C  Has Mass   12.00000
   Atom    8 Element C  Has Mass   12.00000
   Atom    9 Element H  Has Mass    1.00783
   Atom   10 Element H  Has Mass    1.00783
   Atom   11 Element H  Has Mass    1.00783
   Atom   12 Element H  Has Mass    1.00783
   Atom   13 Element H  Has Mass    1.00783
   Atom   14 Element H  Has Mass    1.00783
   Atom   15 Element O  Has Mass   15.99491
   Atom   16 Element H  Has Mass    1.00783
   Molecular Mass:   127.039540 amu
   Principal axes and moments of inertia in amu*Bohr^2:
                             1           2           3
    Eigenvalues --      716.59005  1127.76709  1562.02226
          X               0.92037     0.37797     0.10025
          Y              -0.34555     0.66613     0.66095
          Z               0.18304    -0.64296     0.74370
   Rotational Symmetry Number is   1
   The Molecule is an Asymmetric Top
   Translational Enthalpy:        0.889 kcal/mol
   Rotational Enthalpy:           0.889 kcal/mol
   Vibrational Enthalpy:         81.047 kcal/mol
   gas constant (RT):             0.592 kcal/mol
   Translational Entropy:        40.431  cal/mol.K
   Rotational Entropy:           28.625  cal/mol.K
   Vibrational Entropy:          18.783  cal/mol.K

   Total Enthalpy:               83.417 kcal/mol
   Total Entropy:                87.839  cal/mol.K
 Total job time:  15570.54s(wall), 224265.65s(cpu)
        *  Thank you very much for using Q-Chem.  Have a nice day.  *
