 Q-Chem 5.4, Q-Chem, Inc., Pleasanton, CA (2021)
 Q-Chem 5.4.1 for Intel X86 EM64T Linux

User input:
--------------------------------------------------------------
$molecule
0 2
C        -1.3200626931    0.2608755554    0.5888304483
O        -2.2809976981   -0.5549124490   -0.1893559918
O        -3.3842950932    0.1081578408   -0.4458585409
C        -0.4539806828    1.0678602899   -0.3792525391
C         0.5694995054    0.2121663518   -1.0799473817
C         1.0838691132   -0.8608618190   -0.4702254893
C         0.5967584356   -1.2561224551    0.8607141646
C        -0.5145027656   -0.7237704584    1.3867729158
H        -1.9322019679    0.9255827621    1.1984779216
H         0.0847889365    1.7883893777    0.2537972994
H         0.9129218101    0.5477426593   -2.0553265770
H         1.8676872016   -1.4521891510   -0.9341704340
H         1.1511420886   -2.0134503014    1.4085200351
H        -0.9060011852   -1.0472985660    2.3461177653
O        -1.2302029428    1.8507792503   -1.2714244481
H        -1.6506874621    1.2440857123   -1.9035773482
$end

$rem
BASIS = 6-311++G(2df,2p)
GUI = 2
JOB_TYPE = Optimization
METHOD = wB97M-V
SCF_ALGORITHM = DIIS_GDM
MAX_SCF_CYCLES = 400
GEOM_OPT_MAX_CYCLES = 150
SCF_CONVERGENCE = 7
THRESH = 12
Solvent_method = SMD
$end
--------------------------------------------------------------

   23    -458.3554204844      7.27e-08  Convergence criterion met
 Total energy in the final basis set =     -458.3514681505
   22    -458.3558446872      4.89e-08  Convergence criterion met
 Total energy in the final basis set =     -458.3518927716
   22    -458.3559320964      3.39e-08  Convergence criterion met
 Total energy in the final basis set =     -458.3520051123
   21    -458.3559596475      7.26e-08  Convergence criterion met
 Total energy in the final basis set =     -458.3520209789

             Standard Nuclear Orientation (Angstroms)
    I     Atom           X                Y                Z
 ----------------------------------------------------------------
    1      C      -1.3208393457     0.2598367185     0.5758233778
    2      O      -2.2812278712    -0.5536591596    -0.2013951577
    3      O      -3.4178386926     0.0567965551    -0.3874159016
    4      C      -0.4474771055     1.0617248484    -0.3813983262
    5      C       0.5721678738     0.2083175577    -1.0791779162
    6      C       1.0813756307    -0.8590596951    -0.4684424870
    7      C       0.5935371864    -1.2469686883     0.8598764867
    8      C      -0.5178376997    -0.7201539130     1.3755913678
    9      H      -1.9279166443     0.9229479354     1.1839985604
   10      H       0.0930887949     1.7665481932     0.2602450180
   11      H       0.9160967714     0.5374380312    -2.0513125150
   12      H       1.8619585168    -1.4490442788    -0.9282190891
   13      H       1.1456988295    -1.9953446307     1.4127211188
   14      H      -0.9102138727    -1.0391133490     2.3308099416
   15      O      -1.2105484191     1.8600454599    -1.2696380911
   16      H      -1.6362893525     1.2867230149    -1.9179745872
 ----------------------------------------------------------------

   18    -458.3559593377      5.99e-08  Convergence criterion met
 Total energy in the final basis set =     -458.3520218487
 Final energy is   -458.352021848662
 **  OPTIMIZATION CONVERGED  **

                    Orbital Energies (a.u.)
 --------------------------------------------------------------

 Alpha MOs
 -- Occupied --
-19.4613 -19.4145 -19.3460 -10.4108 -10.4084 -10.3568 -10.3505 -10.3495
-10.3475  -1.3398  -1.1687  -1.0278  -0.9591  -0.8749  -0.8593  -0.7515
 -0.7266  -0.6693  -0.6494  -0.6339  -0.6187  -0.5884  -0.5590  -0.5557
 -0.5452  -0.5250  -0.4854  -0.4559  -0.4482  -0.4318  -0.4138  -0.4059
 -0.3773  -0.3281

 Beta MOs
 -- Occupied --
-19.4506 -19.3960 -19.3458 -10.4112 -10.4080 -10.3568 -10.3504 -10.3494
-10.3475  -1.3133  -1.1682  -1.0084  -0.9464  -0.8737  -0.8519  -0.7469
 -0.7257  -0.6602  -0.6433  -0.6197  -0.5897  -0.5840  -0.5560  -0.5463
 -0.5264  -0.5073  -0.4818  -0.4537  -0.4451  -0.4257  -0.3994  -0.3865
 -0.3266

          Ground-State Mulliken Net Atomic Charges

     Atom                 Charge (a.u.)    Spin (a.u.)
  --------------------------------------------------------
      1 C                    -0.273559      -0.005512
      2 O                     0.089667       0.320812
      3 O                    -0.251220       0.661264
      4 C                    -0.284165       0.021498
      5 C                    -0.070369      -0.001863
      6 C                    -0.324075      -0.000544
      7 C                    -0.301587       0.003275
      8 C                    -0.193708      -0.000663
      9 H                     0.293775       0.001056
     10 H                     0.221155       0.000874
     11 H                     0.294324       0.000184
     12 H                     0.284790      -0.000030
     13 H                     0.284874       0.000149
     14 H                     0.299505      -0.000017
     15 O                    -0.408114       0.001746
     16 H                     0.338707      -0.002228
  --------------------------------------------------------
  Sum of atomic charges =    -0.000000

                    Cartesian Multipole Moments
 -----------------------------------------------------------------
    Charge (ESU x 10^10)
                -0.0000
    Dipole Moment (Debye)
         X       4.0672      Y      -1.3538      Z       1.4254
       Tot       4.5173
    Quadrupole Moments (Debye-Ang)
        XX     -64.7435     XY      -1.4239     YY     -57.1867
        XZ      -3.8017     YZ       0.3839     ZZ     -46.5136

 Total job time:  933.09s(wall), 13360.30s(cpu)
        *  Thank you very much for using Q-Chem.  Have a nice day.  *
