 Q-Chem 5.4, Q-Chem, Inc., Pleasanton, CA (2021)
 Q-Chem 5.4.1 for Intel X86 EM64T Linux

User input:
--------------------------------------------------------------
$molecule
0 2
C        -0.1873587235   -0.9272121728   -0.1256294172
C        -0.5229556116   -1.8904036510    0.8130722998
C        -1.8532008719   -2.0837148725    1.1679779317
C        -2.8489326723   -1.3140927829    0.5831552321
C        -2.5153718359   -0.3491196617   -0.3578324894
C        -1.1865638031   -0.1541658210   -0.7091354586
C        -0.8445588915    0.8710398236   -1.7416402783
H         0.2519659481   -2.4913929127    1.2685405933
H        -2.1121829467   -2.8349085563    1.9016707827
H        -3.8835832755   -1.4620657724    0.8606235249
H        -3.2854173629    0.2573215221   -0.8169065556
O         0.3027996171    1.5694314897   -1.4095387576
H        -1.6776378704    1.5269804708   -1.9858314488
H         0.3715844895    2.3430714210   -1.9826727142
H         0.8468882958   -0.7738594863   -0.4032091831
O        -0.5904475336    0.1029550120   -2.9938705408
O        -0.4144477514    0.9115645502   -3.9992777206
$end

$rem
BASIS = 6-311++G(2df,2p)
GUI = 2
JOB_TYPE = Frequency
METHOD = wB97M-V
SOLVENT_METHOD = SMD
SCF_ALGORITHM = DIIS_GDM
MAX_SCF_CYCLES = 400
SCF_CONVERGENCE = 7
THRESH = 12
UNRESTRICTED = 1
SYMMETRY_IGNORE = 1
$end
--------------------------------------------------------------

   23    -496.5054426797      4.95e-08  Convergence criterion met
 Total energy in the final basis set =     -496.5006307982
   18    -496.5054418765      6.25e-08  Convergence criterion met
 Total energy in the final basis set =     -496.5006295002
   18    -496.5054408699      6.73e-08  Convergence criterion met
 Total energy in the final basis set =     -496.5006294782
   18    -496.5054422122      6.85e-08  Convergence criterion met
 Total energy in the final basis set =     -496.5006300828
   18    -496.5054416022      6.92e-08  Convergence criterion met
 Total energy in the final basis set =     -496.5006299659
   18    -496.5054417357      6.46e-08  Convergence criterion met
 Total energy in the final basis set =     -496.5006301261
   18    -496.5054421993      7.54e-08  Convergence criterion met
 Total energy in the final basis set =     -496.5006300432
   18    -496.5054421761      6.49e-08  Convergence criterion met
 Total energy in the final basis set =     -496.5006297397
   17    -496.5054423672      9.79e-08  Convergence criterion met
 Total energy in the final basis set =     -496.5006304208
   18    -496.5054425420      6.82e-08  Convergence criterion met
 Total energy in the final basis set =     -496.5006307289
   18    -496.5054427701      6.79e-08  Convergence criterion met
 Total energy in the final basis set =     -496.5006308200
   18    -496.5054418634      6.27e-08  Convergence criterion met
 Total energy in the final basis set =     -496.5006301929
   18    -496.5054427819      6.45e-08  Convergence criterion met
 Total energy in the final basis set =     -496.5006306893
   18    -496.5054422886      6.58e-08  Convergence criterion met
 Total energy in the final basis set =     -496.5006305041
   18    -496.5054418639      5.53e-08  Convergence criterion met
 Total energy in the final basis set =     -496.5006298851

                    Orbital Energies (a.u.)
 --------------------------------------------------------------

 Alpha MOs
 -- Occupied --
-19.4600 -19.4197 -19.3629 -10.4633 -10.3609 -10.3515 -10.3510 -10.3484
-10.3474 -10.3471  -1.3447  -1.1923  -1.0161  -0.9868  -0.8917  -0.8767
 -0.7973  -0.7345  -0.7108  -0.6759  -0.6524  -0.6446  -0.6136  -0.5908
 -0.5623  -0.5533  -0.5355  -0.5263  -0.4950  -0.4837  -0.4538  -0.4479
 -0.4394  -0.4023  -0.3995  -0.3530  -0.3520

 Beta MOs
 -- Occupied --
-19.4497 -19.4008 -19.3627 -10.4637 -10.3609 -10.3516 -10.3511 -10.3484
-10.3473 -10.3471  -1.3188  -1.1903  -1.0027  -0.9691  -0.8862  -0.8766
 -0.7912  -0.7338  -0.7090  -0.6697  -0.6409  -0.6341  -0.5968  -0.5592
 -0.5548  -0.5456  -0.5262  -0.5236  -0.4922  -0.4728  -0.4502  -0.4465
 -0.4378  -0.3835  -0.3525  -0.3520

          Ground-State Mulliken Net Atomic Charges

     Atom                 Charge (a.u.)    Spin (a.u.)
  --------------------------------------------------------
      1 C                     0.371286      -0.026191
      2 C                    -0.327671       0.004459
      3 C                    -0.376162      -0.001039
      4 C                    -0.340339       0.001556
      5 C                    -0.827378      -0.000619
      6 C                     0.252551       0.025342
      7 C                    -0.329817       0.000415
      8 H                     0.285182      -0.000005
      9 H                     0.280753       0.000018
     10 H                     0.285493      -0.000043
     11 H                     0.259665       0.000212
     12 O                    -0.336685       0.000240
     13 H                     0.313164       0.002595
     14 H                     0.357063       0.001627
     15 H                     0.280781      -0.000596
     16 O                     0.049621       0.313033
     17 O                    -0.197507       0.678996
  --------------------------------------------------------
  Sum of atomic charges =     0.000000

                    Cartesian Multipole Moments
 -----------------------------------------------------------------
    Charge (ESU x 10^10)
                 0.0000
    Dipole Moment (Debye)
         X      -2.0346      Y       0.8680      Z       2.5928
       Tot       3.4082
    Quadrupole Moments (Debye-Ang)
        XX     -48.8378     XY      -1.3352     YY     -50.6508
        XZ      -0.2242     YZ      -8.6501     ZZ     -72.0432

             Standard Nuclear Orientation (Angstroms)
    I     Atom           X                Y                Z
 ----------------------------------------------------------------
    1      C      -0.1873587235    -0.9272121728    -0.1256294172
    2      C      -0.5229556116    -1.8904036510     0.8130722998
    3      C      -1.8532008719    -2.0837148725     1.1679779317
    4      C      -2.8489326723    -1.3140927829     0.5831552321
    5      C      -2.5153718359    -0.3491196617    -0.3578324894
    6      C      -1.1865638031    -0.1541658210    -0.7091354586
    7      C      -0.8445588915     0.8710398236    -1.7416402783
    8      H       0.2519659481    -2.4913929127     1.2685405933
    9      H      -2.1121829467    -2.8349085563     1.9016707827
   10      H      -3.8835832755    -1.4620657724     0.8606235249
   11      H      -3.2854173629     0.2573215221    -0.8169065556
   12      O       0.3027996171     1.5694314897    -1.4095387576
   13      H      -1.6776378704     1.5269804708    -1.9858314488
   14      H       0.3715844895     2.3430714210    -1.9826727142
   15      H       0.8468882958    -0.7738594863    -0.4032091831
   16      O      -0.5904475336     0.1029550120    -2.9938705408
   17      O      -0.4144477514     0.9115645502    -3.9992777206
 ----------------------------------------------------------------

 Frequency:        21.80                  77.55                 105.00
 Force Cnst:      0.0014                 0.0412                 0.0420
 Red. Mass:       5.1175                11.6335                 6.4645
 IR Intens:        2.578                  0.941                  1.468
 Frequency:       214.27                 281.84                 341.35
 Force Cnst:      0.1252                 0.1631                 0.1725
 Red. Mass:       4.6286                 3.4847                 2.5134
 IR Intens:        9.622                 32.595                 99.424
 Frequency:       373.88                 387.10                 413.91
 Force Cnst:      0.5002                 0.1634                 0.2873
 Red. Mass:       6.0730                 1.8509                 2.8459
 IR Intens:       14.203                106.290                  0.206
 Frequency:       543.29                 600.17                 628.78
 Force Cnst:      0.6210                 1.7896                 1.5493
 Red. Mass:       3.5712                 8.4326                 6.6510
 IR Intens:        3.205                 20.395                  1.705
 Frequency:       644.90                 718.44                 773.53
 Force Cnst:      1.3981                 0.5097                 0.7916
 Red. Mass:       5.7059                 1.6761                 2.2454
 IR Intens:       50.228                 88.111                208.826
 Frequency:       844.24                 878.60                 879.60
 Force Cnst:      1.6025                 0.5716                 1.6728
 Red. Mass:       3.8161                 1.2568                 3.6697
 IR Intens:       78.347                  0.655                 59.607
 Frequency:       970.74                1019.13                1020.81
 Force Cnst:      0.8487                 0.8615                 3.4466
 Red. Mass:       1.5286                 1.4078                 5.6138
 IR Intens:        0.854                  0.167                  1.033
 Frequency:      1039.60                1054.98                1098.52
 Force Cnst:      0.8514                 1.4330                 1.2999
 Red. Mass:       1.3370                 2.1853                 1.8283
 IR Intens:        0.132                 13.255                 87.124
 Frequency:      1129.89                1163.14                1188.28
 Force Cnst:      2.4670                 0.9111                 0.9250
 Red. Mass:       3.2798                 1.1430                 1.1119
 IR Intens:      109.897                  0.993                  3.754
 Frequency:      1224.75                1238.05                1266.32
 Force Cnst:      1.2554                 1.5085                10.8940
 Red. Mass:       1.4204                 1.6704                11.5304
 IR Intens:      180.260                 18.274                 31.507
 Frequency:      1321.52                1343.36                1354.13
 Force Cnst:      4.3389                 1.2880                 1.3900
 Red. Mass:       4.2168                 1.2114                 1.2866
 IR Intens:        7.838                 47.108                  4.905
 Frequency:      1465.14                1495.66                1544.50
 Force Cnst:      2.1600                 2.9175                 3.6462
 Red. Mass:       1.7079                 2.2135                 2.5942
 IR Intens:       83.607                 22.653                  0.195
 Frequency:      1661.37                1680.70                3126.87
 Force Cnst:     10.1467                10.1998                 6.2692
 Red. Mass:       6.2394                 6.1286                 1.0883
 IR Intens:        0.110                  5.254                 18.484
 Frequency:      3189.60                3194.67                3201.82
 Force Cnst:      6.5171                 6.5475                 6.5927
 Red. Mass:       1.0873                 1.0889                 1.0915
 IR Intens:        1.940                  1.601                 12.209
 Frequency:      3209.87                3216.82                3808.26
 Force Cnst:      6.6505                 6.7001                 9.1108
 Red. Mass:       1.0955                 1.0990                 1.0662
 IR Intens:       25.739                 11.381                178.668

 STANDARD THERMODYNAMIC QUANTITIES AT   298.15 K  AND     1.00 ATM

   This Molecule has  0 Imaginary Frequencies
   Zero point vibrational energy:       81.424 kcal/mol

   Atom    1 Element C  Has Mass   12.00000
   Atom    2 Element C  Has Mass   12.00000
   Atom    3 Element C  Has Mass   12.00000
   Atom    4 Element C  Has Mass   12.00000
   Atom    5 Element C  Has Mass   12.00000
   Atom    6 Element C  Has Mass   12.00000
   Atom    7 Element C  Has Mass   12.00000
   Atom    8 Element H  Has Mass    1.00783
   Atom    9 Element H  Has Mass    1.00783
   Atom   10 Element H  Has Mass    1.00783
   Atom   11 Element H  Has Mass    1.00783
   Atom   12 Element O  Has Mass   15.99491
   Atom   13 Element H  Has Mass    1.00783
   Atom   14 Element H  Has Mass    1.00783
   Atom   15 Element H  Has Mass    1.00783
   Atom   16 Element O  Has Mass   15.99491
   Atom   17 Element O  Has Mass   15.99491
   Molecular Mass:   139.039540 amu
   Principal axes and moments of inertia in amu*Bohr^2:
                             1           2           3
    Eigenvalues --      568.26661  2238.86059  2412.76393
          X              -0.30625     0.93517    -0.17798
          Y              -0.54259    -0.01786     0.83981
          Z               0.78218     0.35376     0.51288
   Rotational Symmetry Number is   1
   The Molecule is an Asymmetric Top
   Translational Enthalpy:        0.889 kcal/mol
   Rotational Enthalpy:           0.889 kcal/mol
   Vibrational Enthalpy:         85.228 kcal/mol
   gas constant (RT):             0.592 kcal/mol
   Translational Entropy:        40.700  cal/mol.K
   Rotational Entropy:           29.508  cal/mol.K
   Vibrational Entropy:          25.141  cal/mol.K

   Total Enthalpy:               87.598 kcal/mol
   Total Entropy:                95.349  cal/mol.K
 Total job time:  27994.63s(wall), 216577.18s(cpu)
        *  Thank you very much for using Q-Chem.  Have a nice day.  *
