 Q-Chem 5.4, Q-Chem, Inc., Pleasanton, CA (2021)
 Q-Chem 5.4.1 for Intel X86 EM64T Linux

User input:
--------------------------------------------------------------
$molecule
0 2
C        -0.1968583282   -0.9225288683   -0.1393773201
C        -0.5194427783   -1.8945929181    0.8018877545
C        -1.8496847751   -2.0924650242    1.1740717649
C        -2.8578661837   -1.3182755787    0.6043649528
C        -2.5372174996   -0.3439701489   -0.3389895566
C        -1.2081859822   -0.1439188213   -0.7074569189
C        -0.8680799184    0.8816984553   -1.7441855288
H         0.2657309739   -2.5000365416    1.2450124155
H        -2.0991170143   -2.8517568267    1.9097556422
H        -3.8932970744   -1.4705091009    0.8947564967
H        -3.3180775928    0.2651756402   -0.7870678253
O         0.2687913319    1.5918996586   -1.3958610304
H        -1.7100219307    1.5283099647   -2.0054726716
H         0.3878911298    2.2896754612   -2.0642748171
H         0.8370150595   -0.7641731725   -0.4335004885
O        -0.5888968514    0.1098441468   -2.9906019348
O        -0.2621033661    0.9370522743   -3.9535651344
$end

$rem
BASIS = 6-311++G(2df,2p)
GUI = 2
JOB_TYPE = Optimization
METHOD = wB97M-V
SCF_ALGORITHM = DIIS_GDM
MAX_SCF_CYCLES = 400
GEOM_OPT_MAX_CYCLES = 150
SCF_CONVERGENCE = 7
THRESH = 12
UNRESTRICTED = 1
Solvent_method = SMD
$end
--------------------------------------------------------------

   22    -496.5048074835      8.47e-08  Convergence criterion met
 Total energy in the final basis set =     -496.5000061333
   20    -496.5053001314      8.51e-08  Convergence criterion met
 Total energy in the final basis set =     -496.5005247513
   19    -496.5053681071      5.36e-08  Convergence criterion met
 Total energy in the final basis set =     -496.5005770405
   19    -496.5054253496      7.62e-08  Convergence criterion met
 Total energy in the final basis set =     -496.5006167738
   19    -496.5054399573      5.14e-08  Convergence criterion met
 Total energy in the final basis set =     -496.5006273960
   18    -496.5054418324      7.03e-08  Convergence criterion met
 Total energy in the final basis set =     -496.5006299060

             Standard Nuclear Orientation (Angstroms)
    I     Atom           X                Y                Z
 ----------------------------------------------------------------
    1      C      -0.1873587235    -0.9272121728    -0.1256294172
    2      C      -0.5229556116    -1.8904036510     0.8130722998
    3      C      -1.8532008719    -2.0837148725     1.1679779317
    4      C      -2.8489326723    -1.3140927829     0.5831552321
    5      C      -2.5153718359    -0.3491196617    -0.3578324894
    6      C      -1.1865638031    -0.1541658210    -0.7091354586
    7      C      -0.8445588915     0.8710398236    -1.7416402783
    8      H       0.2519659481    -2.4913929127     1.2685405933
    9      H      -2.1121829467    -2.8349085563     1.9016707827
   10      H      -3.8835832755    -1.4620657724     0.8606235249
   11      H      -3.2854173629     0.2573215221    -0.8169065556
   12      O       0.3027996171     1.5694314897    -1.4095387576
   13      H      -1.6776378704     1.5269804708    -1.9858314488
   14      H       0.3715844895     2.3430714210    -1.9826727142
   15      H       0.8468882958    -0.7738594863    -0.4032091831
   16      O      -0.5904475336     0.1029550120    -2.9938705408
   17      O      -0.4144477514     0.9115645502    -3.9992777206
 ----------------------------------------------------------------

   18    -496.5054426792      6.82e-08  Convergence criterion met
 Total energy in the final basis set =     -496.5006307977
 Final energy is   -496.500630797658
 **  OPTIMIZATION CONVERGED  **

                    Orbital Energies (a.u.)
 --------------------------------------------------------------

 Alpha MOs
 -- Occupied --
-19.4600 -19.4196 -19.3629 -10.4633 -10.3609 -10.3515 -10.3510 -10.3484
-10.3473 -10.3471  -1.3452  -1.1923  -1.0161  -0.9868  -0.8917  -0.8767
 -0.7973  -0.7345  -0.7109  -0.6759  -0.6525  -0.6446  -0.6137  -0.5909
 -0.5623  -0.5534  -0.5355  -0.5263  -0.4950  -0.4837  -0.4538  -0.4479
 -0.4394  -0.4022  -0.3994  -0.3530  -0.3520

 Beta MOs
 -- Occupied --
-19.4498 -19.4007 -19.3627 -10.4637 -10.3609 -10.3515 -10.3510 -10.3484
-10.3473 -10.3471  -1.3193  -1.1903  -1.0027  -0.9691  -0.8862  -0.8766
 -0.7912  -0.7338  -0.7090  -0.6697  -0.6409  -0.6341  -0.5968  -0.5592
 -0.5548  -0.5457  -0.5262  -0.5237  -0.4922  -0.4729  -0.4502  -0.4465
 -0.4378  -0.3834  -0.3525  -0.3520

          Ground-State Mulliken Net Atomic Charges

     Atom                 Charge (a.u.)    Spin (a.u.)
  --------------------------------------------------------
      1 C                     0.371172      -0.026178
      2 C                    -0.327690       0.004465
      3 C                    -0.376174      -0.001038
      4 C                    -0.340354       0.001560
      5 C                    -0.827314      -0.000612
      6 C                     0.252322       0.025331
      7 C                    -0.329626       0.000387
      8 H                     0.285180      -0.000005
      9 H                     0.280751       0.000018
     10 H                     0.285490      -0.000043
     11 H                     0.259662       0.000213
     12 O                    -0.336681       0.000240
     13 H                     0.313197       0.002597
     14 H                     0.357065       0.001627
     15 H                     0.280779      -0.000593
     16 O                     0.049853       0.313376
     17 O                    -0.197631       0.678657
  --------------------------------------------------------
  Sum of atomic charges =     0.000000

                    Cartesian Multipole Moments
 -----------------------------------------------------------------
    Charge (ESU x 10^10)
                 0.0000
    Dipole Moment (Debye)
         X      -2.0344      Y       0.8670      Z       2.5917
       Tot       3.4069
    Quadrupole Moments (Debye-Ang)
        XX     -48.8379     XY      -1.3355     YY     -50.6528
        XZ      -0.2224     YZ      -8.6442     ZZ     -72.0403

 Total job time:  2131.31s(wall), 16548.82s(cpu)
        *  Thank you very much for using Q-Chem.  Have a nice day.  *
