 Q-Chem 5.4, Q-Chem, Inc., Pleasanton, CA (2021)
 Q-Chem 5.4.1 for Intel X86 EM64T Linux

User input:
--------------------------------------------------------------
$molecule
0 2
C        -0.0600066222   -0.3135205577    0.7955608055
C        -0.9784822494   -1.0537090034    1.7582108051
C        -1.7173499139   -2.1575665840    1.0712008585
C        -2.1565599186   -1.9374071279   -0.2206154243
C        -1.8926611525   -0.7332631784   -0.8448707863
C        -1.1583472874    0.3191545082   -0.0691578154
C        -0.6574678257    1.4818044130   -0.9091164815
H         0.4781628576    0.4745166757    1.3260267429
H        -0.4970126816   -1.3571814269    2.6836387448
H        -1.9169013808   -3.0795800365    1.5959972619
H        -2.7100131592   -2.7068360177   -0.7429988464
H        -2.2294102727   -0.5183762414   -1.8501743493
H        -1.4745251722    1.9310078550   -1.4750878685
O         0.3793760951    1.0326470500   -1.7780388714
H        -0.2230516320    2.2335649805   -0.2537698973
H        -0.0204667307    0.5583792750   -2.5157755311
O         0.8221532288   -1.1724563506    0.1134175498
H         1.1670151671   -0.6721216768   -0.6388700494
O        -1.8866771859    0.0079235374    2.1290650003
O        -2.0280605637    0.8637318063    0.9469641518
$end

$rem
BASIS = 6-311++G(2df,2p)
GUI = 2
JOB_TYPE = Frequency
METHOD = wB97M-V
SOLVENT_METHOD = SMD
SCF_ALGORITHM = DIIS_GDM
MAX_SCF_CYCLES = 400
SCF_CONVERGENCE = 7
THRESH = 12
UNRESTRICTED = 1
SYMMETRY_IGNORE = 1
$end
--------------------------------------------------------------

   18    -572.9119612059      5.55e-08  Convergence criterion met
 Total energy in the final basis set =     -572.9071916197
   16    -572.9119633103      7.83e-08  Convergence criterion met
 Total energy in the final basis set =     -572.9071905854
   16    -572.9119571415      7.74e-08  Convergence criterion met
 Total energy in the final basis set =     -572.9071905196
   16    -572.9119575173      7.78e-08  Convergence criterion met
 Total energy in the final basis set =     -572.9071905058
   16    -572.9119629270      7.83e-08  Convergence criterion met
 Total energy in the final basis set =     -572.9071906022
   16    -572.9119584130      7.75e-08  Convergence criterion met
 Total energy in the final basis set =     -572.9071907664
   16    -572.9119622031      7.83e-08  Convergence criterion met
 Total energy in the final basis set =     -572.9071905738
   16    -572.9119605611      7.67e-08  Convergence criterion met
 Total energy in the final basis set =     -572.9071912682
   16    -572.9119606457      7.80e-08  Convergence criterion met
 Total energy in the final basis set =     -572.9071909028
   16    -572.9119610116      7.84e-08  Convergence criterion met
 Total energy in the final basis set =     -572.9071913380
   16    -572.9119607654      7.74e-08  Convergence criterion met
 Total energy in the final basis set =     -572.9071912666
   16    -572.9119606934      7.77e-08  Convergence criterion met
 Total energy in the final basis set =     -572.9071912676
   16    -572.9119608537      7.82e-08  Convergence criterion met
 Total energy in the final basis set =     -572.9071911070
   16    -572.9119606282      7.86e-08  Convergence criterion met
 Total energy in the final basis set =     -572.9071908904
   16    -572.9119607602      7.72e-08  Convergence criterion met
 Total energy in the final basis set =     -572.9071913257

                    Orbital Energies (a.u.)
 --------------------------------------------------------------

 Alpha MOs
 -- Occupied --
-19.4035 -19.4029 -19.3481 -19.3449 -10.4127 -10.4067 -10.4051 -10.3937
-10.3556 -10.3549 -10.3500  -1.2705  -1.1741  -1.1614  -1.0687  -0.9756
 -0.8889  -0.8559  -0.8089  -0.7506  -0.7104  -0.6822  -0.6583  -0.6328
 -0.6081  -0.5866  -0.5784  -0.5643  -0.5541  -0.5341  -0.5222  -0.5174
 -0.4935  -0.4804  -0.4609  -0.4526  -0.4352  -0.4227  -0.3958  -0.3906
 -0.3660  -0.2853

 Beta MOs
 -- Occupied --
-19.4021 -19.4015 -19.3479 -19.3449 -10.4132 -10.4073 -10.4045 -10.3937
-10.3532 -10.3473 -10.3466  -1.2679  -1.1737  -1.1612  -1.0656  -0.9686
 -0.8863  -0.8468  -0.8007  -0.7481  -0.7047  -0.6799  -0.6554  -0.6291
 -0.6067  -0.5804  -0.5754  -0.5609  -0.5502  -0.5310  -0.5198  -0.5141
 -0.4918  -0.4761  -0.4587  -0.4478  -0.4322  -0.3965  -0.3902  -0.3879
 -0.3595

          Ground-State Mulliken Net Atomic Charges

     Atom                 Charge (a.u.)    Spin (a.u.)
  --------------------------------------------------------
      1 C                    -0.136460       0.030839
      2 C                    -0.024381      -0.021923
      3 C                    -0.476619       0.562891
      4 C                    -0.237124      -0.152656
      5 C                    -0.337987       0.591204
      6 C                    -0.050913      -0.061951
      7 C                    -0.379608       0.006754
      8 H                     0.316471      -0.002602
      9 H                     0.287392       0.005425
     10 H                     0.316240      -0.014130
     11 H                     0.299707       0.007622
     12 H                     0.323204      -0.013294
     13 H                     0.251367      -0.000222
     14 O                    -0.385454       0.002311
     15 H                     0.237345      -0.000288
     16 H                     0.330714      -0.000592
     17 O                    -0.416402       0.000475
     18 H                     0.338514       0.001645
     19 O                    -0.129927       0.029654
     20 O                    -0.126079       0.028840
  --------------------------------------------------------
  Sum of atomic charges =     0.000000

                    Cartesian Multipole Moments
 -----------------------------------------------------------------
    Charge (ESU x 10^10)
                 0.0000
    Dipole Moment (Debye)
         X       0.3511      Y      -0.7896      Z      -3.4725
       Tot       3.5784
    Quadrupole Moments (Debye-Ang)
        XX     -72.8680     XY       5.8628     YY     -63.5316
        XZ      10.6607     YZ      -3.4359     ZZ     -58.6138

             Standard Nuclear Orientation (Angstroms)
    I     Atom           X                Y                Z
 ----------------------------------------------------------------
    1      C      -0.0600066222    -0.3135205577     0.7955608055
    2      C      -0.9784822494    -1.0537090034     1.7582108051
    3      C      -1.7173499139    -2.1575665840     1.0712008585
    4      C      -2.1565599186    -1.9374071279    -0.2206154243
    5      C      -1.8926611525    -0.7332631784    -0.8448707863
    6      C      -1.1583472874     0.3191545082    -0.0691578154
    7      C      -0.6574678257     1.4818044130    -0.9091164815
    8      H       0.4781628576     0.4745166757     1.3260267429
    9      H      -0.4970126816    -1.3571814269     2.6836387448
   10      H      -1.9169013808    -3.0795800365     1.5959972619
   11      H      -2.7100131592    -2.7068360177    -0.7429988464
   12      H      -2.2294102727    -0.5183762414    -1.8501743493
   13      H      -1.4745251722     1.9310078550    -1.4750878685
   14      O       0.3793760951     1.0326470500    -1.7780388714
   15      H      -0.2230516320     2.2335649805    -0.2537698973
   16      H      -0.0204667307     0.5583792750    -2.5157755311
   17      O       0.8221532288    -1.1724563506     0.1134175498
   18      H       1.1670151671    -0.6721216768    -0.6388700494
   19      O      -1.8866771859     0.0079235374     2.1290650003
   20      O      -2.0280605637     0.8637318063     0.9469641518
 ----------------------------------------------------------------

 Frequency:        96.15                 122.20                 167.65
 Force Cnst:      0.0257                 0.0399                 0.0920
 Red. Mass:       4.7269                 4.5323                 5.5529
 IR Intens:        3.601                  8.325                 33.044
 Frequency:       212.81                 237.02                 283.72
 Force Cnst:      0.0862                 0.0533                 0.1020
 Red. Mass:       3.2287                 1.6118                 2.1499
 IR Intens:       19.709                119.924                132.862
 Frequency:       292.76                 340.04                 357.66
 Force Cnst:      0.1261                 0.1285                 0.1431
 Red. Mass:       2.4965                 1.8859                 1.8993
 IR Intens:       46.569                 44.108                155.914
 Frequency:       383.71                 449.95                 505.40
 Force Cnst:      0.4843                 0.3973                 0.3369
 Red. Mass:       5.5826                 3.3309                 2.2384
 IR Intens:        1.482                  9.940                 25.894
 Frequency:       525.99                 577.82                 635.69
 Force Cnst:      0.9289                 0.4672                 1.3988
 Red. Mass:       5.6989                 2.3751                 5.8751
 IR Intens:       10.858                 39.560                  3.926
 Frequency:       680.63                 697.67                 748.63
 Force Cnst:      0.8330                 0.9186                 0.8258
 Red. Mass:       3.0520                 3.2033                 2.5010
 IR Intens:       39.724                 49.657                 14.272
 Frequency:       802.03                 870.67                 896.98
 Force Cnst:      1.3266                 2.1979                 1.5132
 Red. Mass:       3.5005                 4.9210                 3.1922
 IR Intens:        8.081                 58.483                  4.240
 Frequency:       935.87                 955.47                 975.76
 Force Cnst:      1.0453                 2.3757                 2.3902
 Red. Mass:       2.0256                 4.4169                 4.2610
 IR Intens:        1.538                  5.032                119.861
 Frequency:       998.03                1026.06                1043.60
 Force Cnst:      0.7871                 2.7654                 1.3209
 Red. Mass:       1.3413                 4.4582                 2.0585
 IR Intens:        2.736                 63.787                 43.582
 Frequency:      1066.49                1101.15                1121.25
 Force Cnst:      3.2099                 1.0593                 0.9243
 Red. Mass:       4.7899                 1.4827                 1.2478
 IR Intens:      123.381                  2.388                  3.658
 Frequency:      1152.17                1186.48                1227.07
 Force Cnst:      1.1295                 1.0787                 2.8845
 Red. Mass:       1.4441                 1.3005                 3.2516
 IR Intens:       19.398                 15.261                 35.001
 Frequency:      1270.04                1281.89                1311.68
 Force Cnst:      1.3879                 1.9037                 1.4993
 Red. Mass:       1.4605                 1.9663                 1.4791
 IR Intens:       29.469                  2.986                 53.931
 Frequency:      1330.07                1353.71                1391.82
 Force Cnst:      2.0591                 1.7467                 1.3744
 Red. Mass:       1.9755                 1.6178                 1.2042
 IR Intens:       70.160                 85.840                 52.901
 Frequency:      1401.28                1406.85                1433.87
 Force Cnst:      2.1203                 1.7605                 2.5071
 Red. Mass:       1.8327                 1.5097                 2.0697
 IR Intens:       37.830                  1.419                 16.874
 Frequency:      1451.42                1487.37                1511.90
 Force Cnst:      2.8067                 1.4319                 3.9066
 Red. Mass:       2.2613                 1.0986                 2.9008
 IR Intens:       28.268                  6.111                 11.207
 Frequency:      3070.60                3072.45                3137.09
 Force Cnst:      5.9085                 6.0279                 6.4107
 Red. Mass:       1.0636                 1.0838                 1.1056
 IR Intens:       41.763                 62.690                 27.523
 Frequency:      3147.01                3190.34                3205.23
 Force Cnst:      6.3525                 6.5228                 6.6166
 Red. Mass:       1.0887                 1.0877                 1.0931
 IR Intens:       10.441                  5.282                 11.445
 Frequency:      3227.21                3756.45                3821.57
 Force Cnst:      6.7154                 8.8667                 9.1782
 Red. Mass:       1.0944                 1.0665                 1.0667
 IR Intens:        9.326                251.457                125.477

 STANDARD THERMODYNAMIC QUANTITIES AT   298.15 K  AND     1.00 ATM

   This Molecule has  0 Imaginary Frequencies
   Zero point vibrational energy:       98.547 kcal/mol

   Atom    1 Element C  Has Mass   12.00000
   Atom    2 Element C  Has Mass   12.00000
   Atom    3 Element C  Has Mass   12.00000
   Atom    4 Element C  Has Mass   12.00000
   Atom    5 Element C  Has Mass   12.00000
   Atom    6 Element C  Has Mass   12.00000
   Atom    7 Element C  Has Mass   12.00000
   Atom    8 Element H  Has Mass    1.00783
   Atom    9 Element H  Has Mass    1.00783
   Atom   10 Element H  Has Mass    1.00783
   Atom   11 Element H  Has Mass    1.00783
   Atom   12 Element H  Has Mass    1.00783
   Atom   13 Element H  Has Mass    1.00783
   Atom   14 Element O  Has Mass   15.99491
   Atom   15 Element H  Has Mass    1.00783
   Atom   16 Element H  Has Mass    1.00783
   Atom   17 Element O  Has Mass   15.99491
   Atom   18 Element H  Has Mass    1.00783
   Atom   19 Element O  Has Mass   15.99491
   Atom   20 Element O  Has Mass   15.99491
   Molecular Mass:   157.050110 amu
   Principal axes and moments of inertia in amu*Bohr^2:
                             1           2           3
    Eigenvalues --     1010.53399  1631.02359  1772.66575
          X              -0.43700    -0.47570     0.76337
          Y              -0.57121     0.80237     0.17301
          Z               0.69481     0.36044     0.62236
   Rotational Symmetry Number is   1
   The Molecule is an Asymmetric Top
   Translational Enthalpy:        0.889 kcal/mol
   Rotational Enthalpy:           0.889 kcal/mol
   Vibrational Enthalpy:        102.940 kcal/mol
   gas constant (RT):             0.592 kcal/mol
   Translational Entropy:        41.063  cal/mol.K
   Rotational Entropy:           29.459  cal/mol.K
   Vibrational Entropy:          24.709  cal/mol.K

   Total Enthalpy:              105.310 kcal/mol
   Total Entropy:                95.231  cal/mol.K
 Total job time:  54566.59s(wall), 422324.82s(cpu)
        *  Thank you very much for using Q-Chem.  Have a nice day.  *
