 Q-Chem 5.4, Q-Chem, Inc., Pleasanton, CA (2021)
 Q-Chem 5.4.1 for Intel X86 EM64T Linux

User input:
--------------------------------------------------------------
$molecule
0 2
C        -0.0592894992   -0.3087826268    0.7919887219
C        -0.9733114544   -1.0565256932    1.7585615009
C        -1.7113872061   -2.1656500911    1.0703336392
C        -2.1589328942   -1.9410420258   -0.2234215546
C        -1.8993346091   -0.7288316247   -0.8465811015
C        -1.1670591618    0.3262212182   -0.0640429376
C        -0.6484034230    1.4821132380   -0.9090500645
H         0.4786716005    0.4840291284    1.3282227170
H        -0.4877456040   -1.3606398447    2.6874943883
H        -1.9104266036   -3.0932614368    1.5953003351
H        -2.7142800242   -2.7138111856   -0.7490174525
H        -2.2503900053   -0.5093080142   -1.8511981557
H        -1.4529380834    1.9309116242   -1.5023459638
O         0.4090826330    1.0122082569   -1.7464131231
H        -0.2219482243    2.2443754772   -0.2527881277
H         0.0054913117    0.4982403692   -2.4659922724
O         0.8178522312   -1.1526297906    0.0849940154
H         1.1085233085   -0.6164334407   -0.6778041568
O        -1.8850940355    0.0023021723    2.1403706808
O        -2.0393666568    0.8672261898    0.9529949113
$end

$rem
BASIS = 6-311++G(2df,2p)
GUI = 2
JOB_TYPE = Optimization
METHOD = wB97M-V
SCF_ALGORITHM = DIIS_GDM
MAX_SCF_CYCLES = 400
GEOM_OPT_MAX_CYCLES = 150
SCF_CONVERGENCE = 7
THRESH = 12
UNRESTRICTED = 1
Solvent_method = SMD
$end
--------------------------------------------------------------

   18    -572.9112441411      4.90e-08  Convergence criterion met
 Total energy in the final basis set =     -572.9065257334
   16    -572.9119035052      6.10e-08  Convergence criterion met
 Total energy in the final basis set =     -572.9071517584
   16    -572.9119395745      7.99e-08  Convergence criterion met
 Total energy in the final basis set =     -572.9071844697
   16    -572.9119523174      7.81e-08  Convergence criterion met
 Total energy in the final basis set =     -572.9071897491
   16    -572.9119579111      7.72e-08  Convergence criterion met
 Total energy in the final basis set =     -572.9071911434

             Standard Nuclear Orientation (Angstroms)
    I     Atom           X                Y                Z
 ----------------------------------------------------------------
    1      C      -0.0600066222    -0.3135205577     0.7955608055
    2      C      -0.9784822494    -1.0537090034     1.7582108051
    3      C      -1.7173499139    -2.1575665840     1.0712008585
    4      C      -2.1565599186    -1.9374071279    -0.2206154243
    5      C      -1.8926611525    -0.7332631784    -0.8448707863
    6      C      -1.1583472874     0.3191545082    -0.0691578154
    7      C      -0.6574678257     1.4818044130    -0.9091164815
    8      H       0.4781628576     0.4745166757     1.3260267429
    9      H      -0.4970126816    -1.3571814269     2.6836387448
   10      H      -1.9169013808    -3.0795800365     1.5959972619
   11      H      -2.7100131592    -2.7068360177    -0.7429988464
   12      H      -2.2294102727    -0.5183762414    -1.8501743493
   13      H      -1.4745251722     1.9310078550    -1.4750878685
   14      O       0.3793760951     1.0326470500    -1.7780388714
   15      H      -0.2230516320     2.2335649805    -0.2537698973
   16      H      -0.0204667307     0.5583792750    -2.5157755311
   17      O       0.8221532288    -1.1724563506     0.1134175498
   18      H       1.1670151671    -0.6721216768    -0.6388700494
   19      O      -1.8866771859     0.0079235374     2.1290650003
   20      O      -2.0280605637     0.8637318063     0.9469641518
 ----------------------------------------------------------------

   16    -572.9119612061      7.74e-08  Convergence criterion met
 Total energy in the final basis set =     -572.9071916199
 Final energy is   -572.907191619904
 **  OPTIMIZATION CONVERGED  **

                    Orbital Energies (a.u.)
 --------------------------------------------------------------

 Alpha MOs
 -- Occupied --
-19.4034 -19.4028 -19.3481 -19.3449 -10.4127 -10.4067 -10.4051 -10.3937
-10.3556 -10.3549 -10.3501  -1.2707  -1.1741  -1.1614  -1.0684  -0.9756
 -0.8889  -0.8559  -0.8088  -0.7506  -0.7104  -0.6822  -0.6582  -0.6328
 -0.6081  -0.5866  -0.5784  -0.5643  -0.5542  -0.5341  -0.5223  -0.5174
 -0.4935  -0.4804  -0.4609  -0.4526  -0.4352  -0.4227  -0.3958  -0.3906
 -0.3659  -0.2853

 Beta MOs
 -- Occupied --
-19.4021 -19.4015 -19.3479 -19.3449 -10.4133 -10.4073 -10.4045 -10.3937
-10.3532 -10.3473 -10.3466  -1.2681  -1.1738  -1.1612  -1.0653  -0.9687
 -0.8863  -0.8468  -0.8007  -0.7481  -0.7047  -0.6800  -0.6553  -0.6291
 -0.6067  -0.5804  -0.5754  -0.5609  -0.5502  -0.5310  -0.5199  -0.5141
 -0.4919  -0.4760  -0.4587  -0.4478  -0.4322  -0.3965  -0.3902  -0.3879
 -0.3594

          Ground-State Mulliken Net Atomic Charges

     Atom                 Charge (a.u.)    Spin (a.u.)
  --------------------------------------------------------
      1 C                    -0.136509       0.030843
      2 C                    -0.024354      -0.021934
      3 C                    -0.476622       0.562877
      4 C                    -0.237083      -0.152648
      5 C                    -0.338058       0.591157
      6 C                    -0.050654      -0.061971
      7 C                    -0.379798       0.006747
      8 H                     0.316467      -0.002602
      9 H                     0.287368       0.005424
     10 H                     0.316241      -0.014128
     11 H                     0.299715       0.007620
     12 H                     0.323199      -0.013295
     13 H                     0.251346      -0.000222
     14 O                    -0.385426       0.002309
     15 H                     0.237336      -0.000288
     16 H                     0.330718      -0.000592
     17 O                    -0.416401       0.000471
     18 H                     0.338515       0.001646
     19 O                    -0.129811       0.029673
     20 O                    -0.126191       0.028912
  --------------------------------------------------------
  Sum of atomic charges =     0.000000

                    Cartesian Multipole Moments
 -----------------------------------------------------------------
    Charge (ESU x 10^10)
                 0.0000
    Dipole Moment (Debye)
         X       0.3508      Y      -0.7903      Z      -3.4747
       Tot       3.5807
    Quadrupole Moments (Debye-Ang)
        XX     -72.8668     XY       5.8654     YY     -63.5306
        XZ      10.6634     YZ      -3.4355     ZZ     -58.6174

 Total job time:  2590.78s(wall), 20081.70s(cpu)
        *  Thank you very much for using Q-Chem.  Have a nice day.  *
