 Q-Chem 5.4, Q-Chem, Inc., Pleasanton, CA (2021)
 Q-Chem 5.4.1 for Intel X86 EM64T Linux

User input:
--------------------------------------------------------------
$molecule
0 2
C        -0.5326998320    0.0025343068    1.0230088974
C        -0.9680983888   -1.1061386779    1.7802259216
C        -1.8563513933   -2.0070854607    1.2371255274
C        -2.3613365522   -1.7976328415   -0.0475638954
C        -1.9848859224   -0.6759702028   -0.7817255910
C        -1.0941960923    0.2408942012   -0.2544839734
C        -0.6553643282    1.4407344335   -1.0471337767
H         0.0088051725    0.7990370438    1.5126621360
H        -0.5776116754   -1.2486966183    2.7783292608
H        -2.1743327329   -2.8689676202    1.8069610373
H        -3.0620138259   -2.5040952834   -0.4709461863
H        -2.4004170344   -0.5102610904   -1.7676878666
H        -1.3991398974    1.6865071802   -1.8048774205
O         0.6226437233    1.2217845646   -1.6668666842
H        -0.5244143939    2.3000984831   -0.3928305391
H         0.5012626424    0.5717335151   -2.3685592532
O         1.2768960978   -0.8001235469    0.3787212566
H         1.3346013948   -0.1633912668   -0.3545236837
$end

$rem
BASIS = 6-311++G(2df,2p)
GUI = 2
JOB_TYPE = Frequency
METHOD = wB97M-V
SOLVENT_METHOD = SMD
SCF_ALGORITHM = DIIS_GDM
MAX_SCF_CYCLES = 400
SCF_CONVERGENCE = 7
THRESH = 12
$end

--------------------------------------------------------------

   23    -422.5080721304      9.08e-08  Convergence criterion met
 Total energy in the final basis set =     -422.5027630009
   21    -422.5080717014      7.22e-08  Convergence criterion met
 Total energy in the final basis set =     -422.5027626772
   21    -422.5080717460      7.40e-08  Convergence criterion met
 Total energy in the final basis set =     -422.5027625094
   21    -422.5080715543      7.21e-08  Convergence criterion met
 Total energy in the final basis set =     -422.5027619710
   21    -422.5080706427      7.33e-08  Convergence criterion met
 Total energy in the final basis set =     -422.5027619646
   21    -422.5080712279      7.34e-08  Convergence criterion met
 Total energy in the final basis set =     -422.5027619692
   21    -422.5080709686      7.16e-08  Convergence criterion met
 Total energy in the final basis set =     -422.5027619652
   21    -422.5080717879      7.37e-08  Convergence criterion met
 Frequency:      -306.07                  66.64                 112.50
 Force Cnst:      0.6706                 0.0097                 0.0426
 Red. Mass:      12.1496                 3.7146                 5.7072
 IR Intens:      157.606                  4.952                  6.835
 Frequency:       161.44                 169.54                 310.04
 Force Cnst:      0.0766                 0.1151                 0.0804
 Red. Mass:       4.9900                 6.7941                 1.4197
 IR Intens:        2.498                  6.423                102.517
 Frequency:       312.32                 357.36                 389.99
 Force Cnst:      0.2569                 0.1153                 0.2679
 Red. Mass:       4.4709                 1.5324                 2.9902
 IR Intens:       11.778                130.958                 12.829
 Frequency:       472.57                 491.48                 591.41
 Force Cnst:      0.1418                 0.5641                 0.7435
 Red. Mass:       1.0774                 3.9637                 3.6079
 IR Intens:      185.475                  0.321                 56.213
 Frequency:       617.43                 727.15                 763.06
 Force Cnst:      1.4127                 1.0323                 0.4836
 Red. Mass:       6.2898                 3.3136                 1.4098
 IR Intens:       16.088                 14.502                144.788
 Frequency:       825.28                 844.11                 892.00
 Force Cnst:      1.3729                 0.4472                 0.6015
 Red. Mass:       3.4214                 1.0653                 1.2831
 IR Intens:       19.658                 46.000                 29.408
 Frequency:       946.20                 957.97                1002.09
 Force Cnst:      0.7989                 0.7587                 1.1016
 Red. Mass:       1.5146                 1.4032                 1.8620
 IR Intens:       35.950                228.099                 54.398
 Frequency:      1018.23                1024.58                1032.49
 Force Cnst:      1.3332                 2.9955                 0.9043
 Red. Mass:       2.1825                 4.8432                 1.4397
 IR Intens:        6.933                 76.545                  2.800
 Frequency:      1051.29                1089.42                1159.77
 Force Cnst:      1.4020                 1.0689                 0.9151
 Red. Mass:       2.1530                 1.5286                 1.1547
 IR Intens:        6.717                 15.954                  7.943
 Frequency:      1177.93                1184.82                1231.52
 Force Cnst:      0.9397                 0.9320                 2.3565
 Red. Mass:       1.1495                 1.1269                 2.6372
 IR Intens:       16.448                 82.418                 47.785
 Frequency:      1323.43                1346.35                1376.61
 Force Cnst:      4.4002                 1.4445                 1.3635
 Red. Mass:       4.2640                 1.3525                 1.2212
 IR Intens:       18.596                  0.540                 14.258
 Frequency:      1404.39                1465.65                1485.63
 Force Cnst:      1.4499                 2.6232                 1.4245
 Red. Mass:       1.2477                 2.0726                 1.0954
 IR Intens:       51.303                 34.096                  2.483
 Frequency:      1529.48                1605.71                1635.24
 Force Cnst:      3.3978                 7.9656                 8.8048
 Red. Mass:       2.4652                 5.2437                 5.5886
 IR Intens:       22.896                 45.531                185.895
 Frequency:      3075.91                3133.53                3188.64
 Force Cnst:      5.9117                 6.4017                 6.5241
 Red. Mass:       1.0605                 1.1066                 1.0891
 IR Intens:       61.669                 27.659                  6.571
 Frequency:      3198.25                3205.91                3212.19
 Force Cnst:      6.5567                 6.6067                 6.6481
 Red. Mass:       1.0879                 1.0910                 1.0936
 IR Intens:        1.411                 16.744                 16.394
 Frequency:      3219.67                3671.39                3818.95
 Force Cnst:      6.7082                 8.4834                 9.1647
 Red. Mass:       1.0983                 1.0682                 1.0665
 IR Intens:       26.328                516.769                108.710

 STANDARD THERMODYNAMIC QUANTITIES AT   298.15 K  AND     1.00 ATM

   This Molecule has  1 Imaginary Frequencies
   Zero point vibrational energy:       91.318 kcal/mol

   Atom    1 Element C  Has Mass   12.00000
   Atom    2 Element C  Has Mass   12.00000
   Atom    3 Element C  Has Mass   12.00000
   Atom    4 Element C  Has Mass   12.00000
   Atom    5 Element C  Has Mass   12.00000
   Atom    6 Element C  Has Mass   12.00000
   Atom    7 Element C  Has Mass   12.00000
   Atom    8 Element H  Has Mass    1.00783
   Atom    9 Element H  Has Mass    1.00783
   Atom   10 Element H  Has Mass    1.00783
   Atom   11 Element H  Has Mass    1.00783
   Atom   12 Element H  Has Mass    1.00783
   Atom   13 Element H  Has Mass    1.00783
   Atom   14 Element O  Has Mass   15.99491
   Atom   15 Element H  Has Mass    1.00783
   Atom   16 Element H  Has Mass    1.00783
   Atom   17 Element O  Has Mass   15.99491
   Atom   18 Element H  Has Mass    1.00783
   Molecular Mass:   125.060290 amu
   Principal axes and moments of inertia in amu*Bohr^2:
                             1           2           3
    Eigenvalues --      675.52777  1344.27674  1703.36268
          X               0.49709     0.80033    -0.33522
          Y               0.67926    -0.11854     0.72426
          Z              -0.53991     0.58772     0.60256
   Rotational Symmetry Number is   1
   The Molecule is an Asymmetric Top
   Translational Enthalpy:        0.889 kcal/mol
   Rotational Enthalpy:           0.889 kcal/mol
   Vibrational Enthalpy:         94.967 kcal/mol
   gas constant (RT):             0.592 kcal/mol
   Translational Entropy:        40.384  cal/mol.K
   Rotational Entropy:           28.827  cal/mol.K
   Vibrational Entropy:          21.635  cal/mol.K

   Total Enthalpy:               97.337 kcal/mol
   Total Entropy:                90.847  cal/mol.K
 Total job time:  22668.05s(wall), 324573.09s(cpu)
        *  Thank you very much for using Q-Chem.  Have a nice day.  *
 Q-Chem 5.4, Q-Chem, Inc., Pleasanton, CA (2021)
 Q-Chem 5.4.1 for Intel X86 EM64T Linux

User input:
--------------------------------------------------------------

$molecule
read
$end

$rem
JOBTYPE            rpath
SCF_GUESS          read
RPATH_MAX_CYCLES   30
BASIS = 6-311++G(2df,2p)
METHOD = wB97M-V
SOLVENT_METHOD = SMD
SCF_ALGORITHM = DIIS_GDM
SCF_CONVERGENCE = 7
THRESH = 12
$end
--------------------------------------------------------------

 Total energy in the final basis set =     -422.5266492387
   17    -422.5324898945      8.53e-08  Convergence criterion met
 Total energy in the final basis set =     -422.5271159639
   17    -422.5322830943      9.76e-08  Convergence criterion met
 Total energy in the final basis set =     -422.5268936203
   16    -422.5325680485      4.17e-08  Convergence criterion met
 Total energy in the final basis set =     -422.5271889398
   17    -422.5319162131      6.76e-08  Convergence criterion met
 Total energy in the final basis set =     -422.5265117877
   16    -422.5327017778      6.39e-08  Convergence criterion met
 Total energy in the final basis set =     -422.5273169360
   18    -422.5326467152      4.41e-08  Convergence criterion met
 Total energy in the final basis set =     -422.5272684384
   17    -422.5327242202      7.22e-08  Convergence criterion met
 Total energy in the final basis set =     -422.5273418389

                    Orbital Energies (a.u.)
 --------------------------------------------------------------

 Alpha MOs
 -- Occupied --
-19.3425 -19.3332 -10.3968 -10.3868 -10.3548 -10.3544 -10.3480 -10.3432
-10.3425  -1.1616  -1.1449  -0.9776  -0.8961  -0.8658  -0.7974  -0.7375
 -0.7063  -0.6376  -0.6266  -0.6044  -0.5784  -0.5605  -0.5445  -0.5301
 -0.5230  -0.4972  -0.4792  -0.4535  -0.4411  -0.4404  -0.3930  -0.3854
 -0.3606  -0.2761

 Beta MOs
 -- Occupied --
-19.3417 -19.3309 -10.3975 -10.3871 -10.3489 -10.3474 -10.3457 -10.3450
-10.3427  -1.1590  -1.1406  -0.9708  -0.8901  -0.8565  -0.7967  -0.7288
 -0.7012  -0.6351  -0.6214  -0.6016  -0.5719  -0.5552  -0.5406  -0.5270
 -0.5199  -0.4914  -0.4755  -0.4393  -0.4384  -0.4250  -0.3893  -0.3817
 -0.3444

          Ground-State Mulliken Net Atomic Charges

     Atom                 Charge (a.u.)    Spin (a.u.)
  --------------------------------------------------------
      1 C                    -0.453473      -0.021068
      2 C                     0.002139       0.366431
      3 C                    -0.541284      -0.137383
      4 C                    -0.234247       0.497841
      5 C                    -0.655643      -0.131298
      6 C                     0.648313       0.350416
      7 C                    -0.436120      -0.007283
      8 H                     0.228489       0.019803
      9 H                     0.317371      -0.008122
     10 H                     0.283957       0.005426
     11 H                     0.312075      -0.010313
     12 H                     0.279053       0.006190
     13 H                     0.204677       0.001039
     14 O                    -0.408742       0.013995
     15 H                     0.229831       0.007398
     16 H                     0.328246      -0.000191
     17 O                    -0.431262       0.041997
     18 H                     0.326618       0.005122
  --------------------------------------------------------
  Sum of atomic charges =    -0.000000

                    Cartesian Multipole Moments
 -----------------------------------------------------------------
    Charge (ESU x 10^10)
                -0.0000
    Dipole Moment (Debye)
         X      -3.4745      Y       0.6267      Z      -1.7494
       Tot       3.9402
    Quadrupole Moments (Debye-Ang)
        XX     -54.8929     XY       2.9134     YY     -54.7345
        XZ       1.9980     YZ       1.9422     ZZ     -46.7757

             Standard Nuclear Orientation (Angstroms)
    I     Atom           X                Y                Z
 ----------------------------------------------------------------
    1      C      -0.5326998320     0.0025343068     1.0230088974
    2      C      -0.9680983888    -1.1061386779     1.7802259216
    3      C      -1.8563513933    -2.0070854607     1.2371255274
    4      C      -2.3613365522    -1.7976328415    -0.0475638954
    5      C      -1.9848859224    -0.6759702028    -0.7817255910
    6      C      -1.0941960923     0.2408942012    -0.2544839734
    7      C      -0.6553643282     1.4407344335    -1.0471337767
    8      H       0.0088051725     0.7990370438     1.5126621360
    9      H      -0.5776116754    -1.2486966183     2.7783292608
   10      H      -2.1743327329    -2.8689676202     1.8069610373
   11      H      -3.0620138259    -2.5040952834    -0.4709461863
   12      H      -2.4004170344    -0.5102610904    -1.7676878666
   13      H      -1.3991398974     1.6865071802    -1.8048774205
   14      O       0.6226437233     1.2217845646    -1.6668666842
   15      H      -0.5244143939     2.3000984831    -0.3928305391
   16      H       0.5012626424     0.5717335151    -2.3685592532
   17      O       1.2768960978    -0.8001235469     0.3787212566
   18      H       1.3346013948    -0.1633912668    -0.3545236837
 ----------------------------------------------------------------

 Total job time:  8296.98s(wall), 118766.02s(cpu)
        *  Thank you very much for using Q-Chem.  Have a nice day.  *
