 Q-Chem 5.4, Q-Chem, Inc., Pleasanton, CA (2021)
 Q-Chem 5.4.1 for Intel X86 EM64T Linux

User input:
--------------------------------------------------------------
$molecule
0 2
C         3.3466170127    1.7927572670   -0.2277125758
O         2.9455071800    2.3186652600    0.9282830223
C         4.6908093839    1.4033196221   -0.3564885451
O         5.1468341586    0.9030081349   -1.4059757422
H         5.3345618322    1.5603909440    0.5180621995
H         2.6308033005    1.6816281147   -1.0311096740
H         2.0078102321    2.5486297573    0.8898985153
$end

$rem
BASIS = 6-311++G(2df,2p)
GUI = 2
JOB_TYPE = Frequency
METHOD = wB97M-V
SOLVENT_METHOD = SMD
SCF_ALGORITHM = DIIS_GDM
MAX_SCF_CYCLES = 400
SCF_CONVERGENCE = 7
THRESH = 12
$end
--------------------------------------------------------------

   17    -228.4286556092      3.07e-08  Convergence criterion met
 Total energy in the final basis set =     -228.4216555698
   16    -228.4286501452      6.18e-08  Convergence criterion met
 Total energy in the final basis set =     -228.4216541425
   16    -228.4286585449      6.09e-08  Convergence criterion met
 Total energy in the final basis set =     -228.4216544749
   17    -228.4286587895      6.26e-08  Convergence criterion met
 Total energy in the final basis set =     -228.4216554519
   17    -228.4286517262      8.51e-08  Convergence criterion met
 Total energy in the final basis set =     -228.4216549986
   16    -228.4286612152      6.07e-08  Convergence criterion met
 Total energy in the final basis set =     -228.4216549812
   16    -228.4286477956      6.47e-08  Convergence criterion met
 Total energy in the final basis set =     -228.4216540062
   16    -228.4286574480      6.10e-08  Convergence criterion met
 Total energy in the final basis set =     -228.4216550062
   16    -228.4286555004      6.13e-08  Convergence criterion met
 Total energy in the final basis set =     -228.4216553447
   16    -228.4286538348      6.18e-08  Convergence criterion met
 Total energy in the final basis set =     -228.4216544722
   16    -228.4286556448      6.11e-08  Convergence criterion met
 Total energy in the final basis set =     -228.4216549285
   16    -228.4286558610      6.13e-08  Convergence criterion met
 Total energy in the final basis set =     -228.4216555081
   16    -228.4286552031      6.14e-08  Convergence criterion met
 Total energy in the final basis set =     -228.4216554767
   16    -228.4286558307      6.13e-08  Convergence criterion met
 Total energy in the final basis set =     -228.4216554137
   16    -228.4286552108      6.14e-08  Convergence criterion met
 Total energy in the final basis set =     -228.4216555484

                    Orbital Energies (a.u.)
 --------------------------------------------------------------

 Alpha MOs
 -- Occupied --
-19.3981 -19.3302 -10.4263 -10.4178  -1.2294  -1.1662  -0.8723  -0.7039
 -0.6849  -0.5999  -0.5612  -0.5512  -0.5032  -0.4979  -0.3817  -0.3078

 Beta MOs
 -- Occupied --
-19.3928 -19.3220 -10.4187 -10.4175  -1.2183  -1.1521  -0.8522  -0.6957
 -0.6762  -0.5936  -0.5421  -0.5239  -0.4911  -0.4569  -0.3719

          Ground-State Mulliken Net Atomic Charges

     Atom                 Charge (a.u.)    Spin (a.u.)
  --------------------------------------------------------
      1 C                    -0.032574       0.525561
      2 O                    -0.253923       0.140545
      3 C                     0.025839       0.064035
      4 O                    -0.498910       0.284079
      5 H                     0.177825      -0.002763
      6 H                     0.219805      -0.008524
      7 H                     0.361938      -0.002934
  --------------------------------------------------------
  Sum of atomic charges =     0.000000

                    Cartesian Multipole Moments
 -----------------------------------------------------------------
    Charge (ESU x 10^10)
                 0.0000
    Dipole Moment (Debye)
         X      -5.3670      Y       2.4569      Z       2.9386
       Tot       6.5937
    Quadrupole Moments (Debye-Ang)
        XX     -60.8204     XY       0.5891     YY     -16.8201
        XZ      16.0020     YZ       1.9360     ZZ     -29.6277

             Standard Nuclear Orientation (Angstroms)
    I     Atom           X                Y                Z
 ----------------------------------------------------------------
    1      C       3.3466170127     1.7927572670    -0.2277125758
    2      O       2.9455071800     2.3186652600     0.9282830223
    3      C       4.6908093839     1.4033196221    -0.3564885451
    4      O       5.1468341586     0.9030081349    -1.4059757422
    5      H       5.3345618322     1.5603909440     0.5180621995
    6      H       2.6308033005     1.6816281147    -1.0311096740
    7      H       2.0078102321     2.5486297573     0.8898985153
 ----------------------------------------------------------------

 Frequency:       253.90                 334.88                 466.17
 Force Cnst:      0.1944                 0.2690                 0.1424
 Red. Mass:       5.1174                 4.0713                 1.1123
 IR Intens:       24.578                 30.621                229.137
 Frequency:       592.99                 803.97                 970.07
 Force Cnst:      1.7825                 0.4828                 0.9124
 Red. Mass:       8.6035                 1.2678                 1.6456
 IR Intens:        3.911                 18.760                  2.575
 Frequency:      1124.61                1243.31                1265.22
 Force Cnst:      1.4277                 2.5709                 1.1897
 Red. Mass:       1.9159                 2.8227                 1.2614
 IR Intens:       66.554                734.398                 25.605
 Frequency:      1359.04                1491.30                1631.39
 Force Cnst:      1.4025                 4.1831                 6.1034
 Red. Mass:       1.2888                 3.1924                 3.8923
 IR Intens:       87.907                214.264                 63.379
 Frequency:      3036.58                3216.38                3794.73
 Force Cnst:      5.9006                 6.6561                 9.0507
 Red. Mass:       1.0861                 1.0920                 1.0668
 IR Intens:       68.248                 16.257                399.425

 STANDARD THERMODYNAMIC QUANTITIES AT   298.15 K  AND     1.00 ATM

   This Molecule has  0 Imaginary Frequencies
   Zero point vibrational energy:       30.857 kcal/mol

   Atom    1 Element C  Has Mass   12.00000
   Atom    2 Element O  Has Mass   15.99491
   Atom    3 Element C  Has Mass   12.00000
   Atom    4 Element O  Has Mass   15.99491
   Atom    5 Element H  Has Mass    1.00783
   Atom    6 Element H  Has Mass    1.00783
   Atom    7 Element H  Has Mass    1.00783
   Molecular Mass:    59.013310 amu
   Principal axes and moments of inertia in amu*Bohr^2:
                             1           2           3
    Eigenvalues --       32.88007   400.72428   433.60418
          X               0.68722     0.68813     0.23280
          Y              -0.39779     0.08831     0.91322
          Z              -0.60785     0.72019    -0.33442
   Rotational Symmetry Number is   1
   The Molecule is an Asymmetric Top
   Translational Enthalpy:        0.889 kcal/mol
   Rotational Enthalpy:           0.889 kcal/mol
   Vibrational Enthalpy:         31.772 kcal/mol
   gas constant (RT):             0.592 kcal/mol
   Translational Entropy:        38.146  cal/mol.K
   Rotational Entropy:           23.261  cal/mol.K
   Vibrational Entropy:           4.622  cal/mol.K

   Total Enthalpy:               34.142 kcal/mol
   Total Entropy:                66.030  cal/mol.K
 Total job time:  751.91s(wall), 11515.13s(cpu)
        *  Thank you very much for using Q-Chem.  Have a nice day.  *
