 Q-Chem 5.4, Q-Chem, Inc., Pleasanton, CA (2021)
 Q-Chem 5.4.1 for Intel X86 EM64T Linux

User input:
--------------------------------------------------------------
$molecule
0 2
C         3.3459824550    1.7929058581   -0.2262937958
O         2.9467447434    2.3213000971    0.9367886414
C         4.6947691636    1.3999822717   -0.3587794798
O         5.1483532568    0.9010196791   -1.4126586759
H         5.3374534637    1.5620032791    0.5227519423
H         2.6276800034    1.6819227834   -1.0328719501
H         2.0019600141    2.5492651315    0.8860205180
$end

$rem
BASIS = 6-311++G(2df,2p)
GUI = 2
JOB_TYPE = Optimization
METHOD = wB97M-V
SCF_ALGORITHM = DIIS_GDM
MAX_SCF_CYCLES = 400
GEOM_OPT_MAX_CYCLES = 150
SCF_CONVERGENCE = 7
THRESH = 12
Solvent_method = SMD
$end
--------------------------------------------------------------

   17    -228.4284516854      3.29e-08  Convergence criterion met
 Total energy in the final basis set =     -228.4214887755
   18    -228.4286381026      3.99e-08  Convergence criterion met
 Total energy in the final basis set =     -228.4216469872
   18    -228.4286371338      4.40e-08  Convergence criterion met
 Total energy in the final basis set =     -228.4216366361

             Standard Nuclear Orientation (Angstroms)
    I     Atom           X                Y                Z
 ----------------------------------------------------------------
    1      C       3.3466170127     1.7927572670    -0.2277125758
    2      O       2.9455071800     2.3186652600     0.9282830223
    3      C       4.6908093839     1.4033196221    -0.3564885451
    4      O       5.1468341586     0.9030081349    -1.4059757422
    5      H       5.3345618322     1.5603909440     0.5180621995
    6      H       2.6308033005     1.6816281147    -1.0311096740
    7      H       2.0078102321     2.5486297573     0.8898985153
 ----------------------------------------------------------------

   18    -228.4286556088      4.15e-08  Convergence criterion met
 Total energy in the final basis set =     -228.4216555694
 Final energy is   -228.421655569422
 **  OPTIMIZATION CONVERGED  **

                    Orbital Energies (a.u.)
 --------------------------------------------------------------

 Alpha MOs
 -- Occupied --
-19.3981 -19.3302 -10.4263 -10.4178  -1.2294  -1.1662  -0.8724  -0.7039
 -0.6849  -0.5998  -0.5612  -0.5512  -0.5032  -0.4979  -0.3817  -0.3078

 Beta MOs
 -- Occupied --
-19.3928 -19.3220 -10.4187 -10.4175  -1.2183  -1.1521  -0.8522  -0.6957
 -0.6762  -0.5935  -0.5421  -0.5239  -0.4911  -0.4569  -0.3719

          Ground-State Mulliken Net Atomic Charges

     Atom                 Charge (a.u.)    Spin (a.u.)
  --------------------------------------------------------
      1 C                    -0.032519       0.525550
      2 O                    -0.253984       0.140546
      3 C                     0.025827       0.064045
      4 O                    -0.498917       0.284080
      5 H                     0.177817      -0.002763
      6 H                     0.219822      -0.008526
      7 H                     0.361954      -0.002932
  --------------------------------------------------------
  Sum of atomic charges =     0.000000

                    Cartesian Multipole Moments
 -----------------------------------------------------------------
    Charge (ESU x 10^10)
                 0.0000
    Dipole Moment (Debye)
         X      -5.3674      Y       2.4568      Z       2.9405
       Tot       6.5948
    Quadrupole Moments (Debye-Ang)
        XX     -60.8222     XY       0.5881     YY     -16.8202
        XZ      16.0042     YZ       1.9410     ZZ     -29.6243

 Total job time:  210.60s(wall), 801.19s(cpu)
        *  Thank you very much for using Q-Chem.  Have a nice day.  *
