 Q-Chem 5.4, Q-Chem, Inc., Pleasanton, CA (2021)
 Q-Chem 5.4.1 for Intel X86 EM64T Linux

User input:
--------------------------------------------------------------
$molecule
-1 2
O         0.9863786334   -0.7277017022    0.2431372294
C         2.2809832116   -0.2485899790   -0.0626964326
C         2.7820803057    0.6980485948    1.0094389159
O         2.0128853643    0.9095691819    1.9704649205
C         4.0735771173    1.2567779561    0.8018733079
C         4.7580626527    2.1377217661    1.6030881704
C         4.2151611665    2.9881039990    2.7313152983
O         3.5069480026    4.0794901394    2.1611266694
O         3.4449817137    2.3024861703    3.6793064579
H         0.7541421394   -0.3157929120    1.0912279768
H         2.2742025208    0.2790930864   -1.0193444622
H         2.9839714075   -1.0805671368   -0.1491762279
H         4.5751054064    0.9191419639   -0.0968766393
H         5.6627842829    2.5593671250    1.1842538647
H         5.0473984440    3.4350082456    3.2665314635
H         2.8438867479    3.7277570658    1.5534013006
H         2.8005516219    1.7514424349    3.1806576308
O         6.0101946484    1.0734699070    2.8679786368
O         7.0751141130    1.7636269938    3.1691893192
$end

$rem
BASIS = 6-311++G(2df,2p)
GUI = 2
JOB_TYPE = Frequency
METHOD = wB97M-V
SOLVENT_METHOD = SMD
SCF_ALGORITHM = DIIS_GDM
MAX_SCF_CYCLES = 400
SCF_CONVERGENCE = 7
THRESH = 12
$end

--------------------------------------------------------------

   27    -646.7163055119      3.31e-08  Convergence criterion met
 Total energy in the final basis set =     -646.7111158071
   25    -646.7163066213      9.05e-08  Convergence criterion met
 Total energy in the final basis set =     -646.7111150242
   25    -646.7163032004      8.85e-08  Convergence criterion met
 Total energy in the final basis set =     -646.7111150125
   25    -646.7163058225      9.05e-08  Convergence criterion met
 Total energy in the final basis set =     -646.7111154461
   25    -646.7163045277      8.83e-08  Convergence criterion met
 Total energy in the final basis set =     -646.7111154408
   25    -646.7163043046      9.04e-08  Convergence criterion met
 Total energy in the final basis set =     -646.7111149791
   25    -646.7163050943      8.84e-08  Convergence criterion met
 Total energy in the final basis set =     -646.7111149883
   25    -646.7163021280      8.84e-08  Convergence criterion met
 Total energy in the final basis set =     -646.7111152310
   25    -646.7163051938      8.81e-08  Convergence criterion met
 Total energy in the final basis set =     -646.7111155360
   25    -646.7163053089      9.10e-08  Convergence criterion met
 Total energy in the final basis set =     -646.7111155571
   25    -646.7163054795      8.74e-08  Convergence criterion met
 Total energy in the final basis set =     -646.7111157596
   25    -646.7163054305      9.26e-08  Convergence criterion met
 Total energy in the final basis set =     -646.7111157409
 Frequency:      -210.55                  50.18                  57.69
 Force Cnst:      0.2980                 0.0114                 0.0204
 Red. Mass:      11.4069                 7.6716                10.4157
 IR Intens:      986.438                  9.188                  5.264
 Frequency:        77.29                  87.94                 101.02
 Force Cnst:      0.0193                 0.0277                 0.0228
 Red. Mass:       5.4793                 6.0775                 3.7949
 IR Intens:        7.195                  6.001                  2.728
 Frequency:       168.02                 186.40                 226.52
 Force Cnst:      0.1485                 0.1322                 0.1660
 Red. Mass:       8.9282                 6.4575                 5.4920
 IR Intens:        7.206                  4.353                 12.094
 Frequency:       253.15                 308.11                 326.63
 Force Cnst:      0.1521                 0.1873                 0.0724
 Red. Mass:       4.0274                 3.3480                 1.1523
 IR Intens:       31.932                 82.948                227.163
 Frequency:       341.21                 370.13                 426.78
 Force Cnst:      0.0947                 0.5383                 0.5084
 Red. Mass:       1.3810                 6.6692                 4.7373
 IR Intens:       85.294                124.632                 29.198
 Frequency:       502.91                 550.27                 631.26
 Force Cnst:      0.8674                 0.5965                 0.7742
 Red. Mass:       5.8209                 3.3435                 3.2975
 IR Intens:      105.046                  8.590                 98.761
 Frequency:       659.07                 741.19                 779.36
 Force Cnst:      1.1475                 0.3589                 0.4658
 Red. Mass:       4.4836                 1.1088                 1.3016
 IR Intens:       41.281                222.145                 67.447
 Frequency:       794.85                 878.29                 956.02
 Force Cnst:      1.3170                 1.8066                 2.3354
 Red. Mass:       3.5382                 3.9749                 4.3368
 IR Intens:       47.389                 41.408                 91.532
 Frequency:      1010.15                1046.13                1060.82
 Force Cnst:      1.2408                 1.9215                 1.0039
 Red. Mass:       2.0638                 2.9800                 1.5140
 IR Intens:       64.367                357.071                232.021
 Frequency:      1155.56                1204.75                1228.09
 Force Cnst:      2.6320                 1.4815                 1.2249
 Red. Mass:       3.3454                 1.7325                 1.3784
 IR Intens:      389.242                215.876                129.282
 Frequency:      1240.30                1265.82                1271.44
 Force Cnst:      1.1461                 1.2381                 1.0320
 Red. Mass:       1.2645                 1.3114                 1.0836
 IR Intens:       52.319                227.080                  6.519
 Frequency:      1284.59                1328.59                1383.99
 Force Cnst:      9.1014                 2.2782                 1.8294
 Red. Mass:       9.3612                 2.1905                 1.6210
 IR Intens:      127.619                 41.431                  7.413
 Frequency:      1416.89                1424.18                1454.38
 Force Cnst:      1.8457                 1.5129                 1.7870
 Red. Mass:       1.5604                 1.2660                 1.4339
 IR Intens:      591.544                118.844                 60.377
 Frequency:      1483.67                1507.65                1527.77
 Force Cnst:      1.9416                 1.7259                 5.2061
 Red. Mass:       1.4971                 1.2887                 3.7857
 IR Intens:      446.387                179.838               1270.239
 Frequency:      1628.29                3051.14                3085.69
 Force Cnst:      9.4140                 5.8064                 6.2003
 Red. Mass:       6.0264                 1.0586                 1.1052
 IR Intens:      264.170                 55.891                 15.613
 Frequency:      3141.87                3172.50                3191.48
 Force Cnst:      6.3290                 6.4440                 6.5541
 Red. Mass:       1.0882                 1.0867                 1.0921
 IR Intens:       49.476                 13.399                 27.273
 Frequency:      3361.89                3675.96                3794.74
 Force Cnst:      7.1292                 8.4791                 9.0465
 Red. Mass:       1.0706                 1.0650                 1.0663
 IR Intens:      945.438                228.976                 99.107

 STANDARD THERMODYNAMIC QUANTITIES AT   298.15 K  AND     1.00 ATM

   This Molecule has  1 Imaginary Frequencies
   Zero point vibrational energy:       87.022 kcal/mol

   Atom    1 Element O  Has Mass   15.99491
   Atom    2 Element C  Has Mass   12.00000
   Atom    3 Element C  Has Mass   12.00000
   Atom    4 Element O  Has Mass   15.99491
   Atom    5 Element C  Has Mass   12.00000
   Atom    6 Element C  Has Mass   12.00000
   Atom    7 Element C  Has Mass   12.00000
   Atom    8 Element O  Has Mass   15.99491
   Atom    9 Element O  Has Mass   15.99491
   Atom   10 Element H  Has Mass    1.00783
   Atom   11 Element H  Has Mass    1.00783
   Atom   12 Element H  Has Mass    1.00783
   Atom   13 Element H  Has Mass    1.00783
   Atom   14 Element H  Has Mass    1.00783
   Atom   15 Element H  Has Mass    1.00783
   Atom   16 Element H  Has Mass    1.00783
   Atom   17 Element H  Has Mass    1.00783
   Atom   18 Element O  Has Mass   15.99491
   Atom   19 Element O  Has Mass   15.99491
   Molecular Mass:   164.032100 amu
   Principal axes and moments of inertia in amu*Bohr^2:
                             1           2           3
    Eigenvalues --     1088.10315  2945.11230  3436.72384
          X               0.74827    -0.61725    -0.24308
          Y               0.46648     0.75010    -0.46877
          Z               0.47168     0.23738     0.84922
   Rotational Symmetry Number is   1
   The Molecule is an Asymmetric Top
   Translational Enthalpy:        0.889 kcal/mol
   Rotational Enthalpy:           0.889 kcal/mol
   Vibrational Enthalpy:         92.804 kcal/mol
   gas constant (RT):             0.592 kcal/mol
   Translational Entropy:        41.193  cal/mol.K
   Rotational Entropy:           30.777  cal/mol.K
   Vibrational Entropy:          38.122  cal/mol.K

   Total Enthalpy:               95.174 kcal/mol
   Total Entropy:               110.092  cal/mol.K
 Total job time:  29554.64s(wall), 419600.36s(cpu)
        *  Thank you very much for using Q-Chem.  Have a nice day.  *
 Q-Chem 5.4, Q-Chem, Inc., Pleasanton, CA (2021)
 Q-Chem 5.4.1 for Intel X86 EM64T Linux

User input:
--------------------------------------------------------------

$molecule
read
$end

$rem
JOBTYPE            rpath
SCF_GUESS          read
RPATH_MAX_CYCLES   30
BASIS = 6-311++G(2df,2p)
METHOD = wB97M-V
SOLVENT_METHOD = SMD
SCF_ALGORITHM = DIIS_GDM
SCF_CONVERGENCE = 7
THRESH = 12
$end
--------------------------------------------------------------

   25    -646.7163055106      8.79e-08  Convergence criterion met
 Total energy in the final basis set =     -646.7111158058
   26    -646.7165510632      7.39e-08  Convergence criterion met
 Total energy in the final basis set =     -646.7113214933
   26    -646.7154146178      7.03e-08  Convergence criterion met
 Total energy in the final basis set =     -646.7102270127

                    Orbital Energies (a.u.)
 --------------------------------------------------------------

 Alpha MOs
 -- Occupied --
-19.3672 -19.3555 -19.3436 -19.3343 -19.3272 -19.3268 -10.4437 -10.4349
-10.3877 -10.3863 -10.3279  -1.2514  -1.1954  -1.1804  -1.1426  -1.1237
 -0.9243  -0.8809  -0.8534  -0.8000  -0.7320  -0.6577  -0.6446  -0.6361
 -0.6024  -0.5966  -0.5795  -0.5543  -0.5501  -0.5387  -0.5287  -0.5252
 -0.4995  -0.4929  -0.4819  -0.4718  -0.4503  -0.4163  -0.4034  -0.3939
 -0.3734  -0.3618  -0.3352  -0.2919

 Beta MOs
 -- Occupied --
-19.3524 -19.3437 -19.3403 -19.3343 -19.3274 -19.3267 -10.4437 -10.4350
-10.3878 -10.3863 -10.3280  -1.2216  -1.1954  -1.1806  -1.1428  -1.1236
 -0.9228  -0.8609  -0.8322  -0.8001  -0.7319  -0.6576  -0.6444  -0.6360
 -0.6023  -0.5952  -0.5797  -0.5411  -0.5385  -0.5271  -0.5145  -0.4999
 -0.4876  -0.4828  -0.4717  -0.4590  -0.4487  -0.4158  -0.4026  -0.3940
 -0.3735  -0.3560  -0.2729

          Ground-State Mulliken Net Atomic Charges

     Atom                 Charge (a.u.)    Spin (a.u.)
  --------------------------------------------------------
      1 O                    -0.460483      -0.000065
      2 C                    -0.536978       0.000307
      3 C                     0.449605      -0.005351
      4 O                    -0.577337      -0.006956
      5 C                    -0.144996      -0.006523
      6 C                    -0.202423      -0.001616
      7 C                    -0.365962      -0.007330
      8 O                    -0.399493      -0.001035
      9 O                    -0.486632       0.002769
     10 H                     0.347405       0.000063
     11 H                     0.212450      -0.000258
     12 H                     0.208842      -0.000469
     13 H                     0.289101       0.000696
     14 H                     0.344072      -0.000754
     15 H                     0.264823      -0.000680
     16 H                     0.332838       0.000124
     17 H                     0.397688      -0.000242
     18 O                    -0.252292       0.493294
     19 O                    -0.420227       0.534027
  --------------------------------------------------------
  Sum of atomic charges =    -1.000000

                    Cartesian Multipole Moments
 -----------------------------------------------------------------
    Charge (ESU x 10^10)
                -4.8032
    Dipole Moment (Debye)
         X     -23.5407      Y      -7.1070      Z     -17.2308
       Tot      30.0262
    Quadrupole Moments (Debye-Ang)
        XX    -215.3688     XY     -40.8064     YY     -92.1994
        XZ     -91.8373     YZ     -31.3392     ZZ    -125.6201

             Standard Nuclear Orientation (Angstroms)
    I     Atom           X                Y                Z
 ----------------------------------------------------------------
    1      O       0.9839832099    -0.7317431103     0.2412646704
    2      C       2.2770758242    -0.2506986192    -0.0634818668
    3      C       2.7727001527     0.6973370180     1.0050150366
    4      O       2.0114210453     0.9103286067     1.9652643469
    5      C       4.0689533259     1.2646043491     0.7929453962
    6      C       4.7364969689     2.1532413975     1.5806961849
    7      C       4.2107830692     2.9887965346     2.7264136358
    8      O       3.5007852254     4.0860450000     2.1676650725
    9      O       3.4465082128     2.3017983782     3.6779615756
   10      H       0.7487299541    -0.3205532706     1.0886731947
   11      H       2.2730187111     0.2777776048    -1.0200399660
   12      H       2.9844482265    -1.0795819168    -0.1481264169
   13      H       4.5737339294     0.9192677986    -0.1007142608
   14      H       5.6610074943     2.5520069361     1.1833856292
   15      H       5.0485907545     3.4296091771     3.2582115088
   16      H       2.8404563586     3.7371993245     1.5552241032
   17      H       2.7990017340     1.7531064520     3.1840511472
   18      O       6.0446444993     1.0542618318     2.9054985270
   19      O       7.1060709479     1.7656493335     3.1849899525
 ----------------------------------------------------------------
