 Q-Chem 5.4, Q-Chem, Inc., Pleasanton, CA (2021)
 Q-Chem 5.4.1 for Intel X86 EM64T Linux

User input:
--------------------------------------------------------------
$molecule
-1 2
O    0.9284835   -0.0596840   -0.1810432
C    2.3131923   -0.2921501    0.0621416
C    2.8637295    0.7711458    0.9956252
O    2.0083076    1.1789315    1.8919044
C    4.1461527    1.1891703    0.8301372
C    4.8916443    2.1547543    1.6697488
C    4.1453429    2.9311835    2.7597746
O    3.1419828    3.7283505    2.1701730
O    3.6238834    2.0919120    3.7599018
H    0.6195941    0.3948848    0.6184631
H    2.8371004   -0.2988504   -0.8908679
H    2.4466469   -1.2698377    0.5377012
H    4.6919050    0.7971135   -0.0187298
H    5.4495998    2.8711160    1.0676099
H    4.8474289    3.6065048    3.2436745
H    2.4735273    3.0974835    1.8460026
H    2.9366337    1.5606830    3.2917459
O    6.3606550    1.1506096    2.5905323
O    7.3625994    1.9051320    2.9404022
$end

$rem
BASIS = 6-311++G(2df,2p)
GUI = 2
JOB_TYPE = Frequency
METHOD = wB97M-V
SCF_ALGORITHM = DIIS_GDM
MAX_SCF_CYCLES = 400
SCF_CONVERGENCE = 6
THRESH = 11
solvent_method = SMD
$end

--------------------------------------------------------------

   23    -646.6953030051      6.85e-07  Convergence criterion met
 Total energy in the final basis set =     -646.6905659067
   22    -646.6953054722      5.41e-07  Convergence criterion met
 Total energy in the final basis set =     -646.6905681508
   22    -646.6952992011      5.45e-07  Convergence criterion met
 Total energy in the final basis set =     -646.6905623250
   22    -646.6953026403      5.43e-07  Convergence criterion met
 Total energy in the final basis set =     -646.6905654368
   22    -646.6953027619      5.44e-07  Convergence criterion met
 Total energy in the final basis set =     -646.6905657667
   22    -646.6953045034      5.41e-07  Convergence criterion met
 Total energy in the final basis set =     -646.6905673795
   22    -646.6952999796      5.45e-07  Convergence criterion met
 Total energy in the final basis set =     -646.6905629054
   22    -646.6952969944      5.47e-07  Convergence criterion met
 Frequency:      -321.19                  66.43                  89.06
 Force Cnst:      0.6590                 0.0136                 0.0262
 Red. Mass:      10.8414                 5.2197                 5.6120
 IR Intens:     1148.336                  9.249                 13.024
 Frequency:       104.74                 110.33                 122.33
 Force Cnst:      0.0488                 0.0515                 0.0495
 Red. Mass:       7.5576                 7.1772                 5.6146
 IR Intens:        9.040                  1.648                 13.035
 Frequency:       193.84                 206.63                 256.54
 Force Cnst:      0.1325                 0.2136                 0.2627
 Red. Mass:       5.9852                 8.4908                 6.7749
 IR Intens:        4.369                 10.139                  3.826
 Frequency:       281.34                 327.19                 357.49
 Force Cnst:      0.2547                 0.3693                 0.2601
 Red. Mass:       5.4606                 5.8554                 3.4539
 IR Intens:       38.612                 29.632                136.779
 Frequency:       425.52                 434.63                 481.27
 Force Cnst:      0.1943                 0.2646                 0.4869
 Red. Mass:       1.8210                 2.3774                 3.5682
 IR Intens:      110.997                145.685                100.660
 Frequency:       558.83                 595.07                 621.90
 Force Cnst:      0.4850                 0.3139                 0.7615
 Red. Mass:       2.6359                 1.5048                 3.3418
 IR Intens:       25.547                129.033                145.609
 Frequency:       687.98                 753.72                 783.07
 Force Cnst:      1.1410                 0.5390                 0.4107
 Red. Mass:       4.0916                 1.6104                 1.1368
 IR Intens:       63.421                278.443                169.552
 Frequency:       816.50                 825.12                 949.86
 Force Cnst:      0.9120                 1.5966                 1.8691
 Red. Mass:       2.3218                 3.9803                 3.5161
 IR Intens:       97.391                180.779                295.873
 Frequency:      1002.79                1005.83                1059.40
 Force Cnst:      1.1371                 0.9629                 2.9548
 Red. Mass:       1.9192                 1.6155                 4.4685
 IR Intens:       15.457                497.104                320.650
 Frequency:      1111.47                1187.45                1200.07
 Force Cnst:      1.4217                 1.5676                 1.3947
 Red. Mass:       1.9532                 1.8869                 1.6437
 IR Intens:       63.599                391.308                223.889
 Frequency:      1224.77                1232.31                1243.21
 Force Cnst:      1.1068                 5.5665                 1.1189
 Red. Mass:       1.2523                 6.2215                 1.2287
 IR Intens:       67.203                 83.955                210.899
 Frequency:      1298.93                1313.03                1345.19
 Force Cnst:      2.8993                 1.2264                 1.9423
 Red. Mass:       2.9165                 1.2074                 1.8218
 IR Intens:      150.989                 12.464                441.942
 Frequency:      1361.46                1416.47                1430.30
 Force Cnst:      2.8486                 1.8077                 1.7784
 Red. Mass:       2.6084                 1.5292                 1.4754
 IR Intens:      146.532                395.974                136.968
 Frequency:      1466.36                1475.40                1509.97
 Force Cnst:      1.9465                 1.3982                 1.8414
 Red. Mass:       1.5365                 1.0902                 1.3708
 IR Intens:      196.370                 27.096                 60.746
 Frequency:      1585.82                3025.41                3117.93
 Force Cnst:      6.4285                 5.7669                 6.2308
 Red. Mass:       4.3386                 1.0694                 1.0878
 IR Intens:     1182.285                 47.264                 25.435
 Frequency:      3127.05                3129.53                3183.43
 Force Cnst:      6.3039                 6.2833                 6.5031
 Red. Mass:       1.0942                 1.0889                 1.0891
 IR Intens:       32.174                 67.539                 11.193
 Frequency:      3351.13                3619.51                3698.00
 Force Cnst:      7.0676                 8.2295                 8.5801
 Red. Mass:       1.0682                 1.0662                 1.0649
 IR Intens:      601.184                300.919                192.654

 STANDARD THERMODYNAMIC QUANTITIES AT   298.15 K  AND     1.00 ATM

   This Molecule has  1 Imaginary Frequencies
   Zero point vibrational energy:       86.877 kcal/mol

   Atom    1 Element O  Has Mass   15.99491
   Atom    2 Element C  Has Mass   12.00000
   Atom    3 Element C  Has Mass   12.00000
   Atom    4 Element O  Has Mass   15.99491
   Atom    5 Element C  Has Mass   12.00000
   Atom    6 Element C  Has Mass   12.00000
   Atom    7 Element C  Has Mass   12.00000
   Atom    8 Element O  Has Mass   15.99491
   Atom    9 Element O  Has Mass   15.99491
   Atom   10 Element H  Has Mass    1.00783
   Atom   11 Element H  Has Mass    1.00783
   Atom   12 Element H  Has Mass    1.00783
   Atom   13 Element H  Has Mass    1.00783
   Atom   14 Element H  Has Mass    1.00783
   Atom   15 Element H  Has Mass    1.00783
   Atom   16 Element H  Has Mass    1.00783
   Atom   17 Element H  Has Mass    1.00783
   Atom   18 Element O  Has Mass   15.99491
   Atom   19 Element O  Has Mass   15.99491
   Molecular Mass:   164.032100 amu
   Principal axes and moments of inertia in amu*Bohr^2:
                             1           2           3
    Eigenvalues --     1041.76702  2909.40299  3496.12789
          X               0.81810    -0.54710    -0.17718
          Y               0.34254     0.71107    -0.61404
          Z               0.46193     0.44166     0.76913
   Rotational Symmetry Number is   1
   The Molecule is an Asymmetric Top
   Translational Enthalpy:        0.889 kcal/mol
   Rotational Enthalpy:           0.889 kcal/mol
   Vibrational Enthalpy:         92.229 kcal/mol
   gas constant (RT):             0.592 kcal/mol
   Translational Entropy:        41.193  cal/mol.K
   Rotational Entropy:           30.739  cal/mol.K
   Vibrational Entropy:          33.303  cal/mol.K

   Total Enthalpy:               94.599 kcal/mol
   Total Entropy:               105.235  cal/mol.K
 Total job time:  27671.94s(wall), 390344.46s(cpu)
        *  Thank you very much for using Q-Chem.  Have a nice day.  *
 Q-Chem 5.4, Q-Chem, Inc., Pleasanton, CA (2021)
 Q-Chem 5.4.1 for Intel X86 EM64T Linux

User input:
--------------------------------------------------------------

$rem
JOBTYPE = ts
SCF_GUESS = read
GEOM_OPT_HESSIAN = read
MAX_SCF_CYCLES = 350
GEOM_OPT_DMAX = 60
GEOM_OPT_MAX_CYCLES = 250
METHOD = wB97M-v
BASIS = 6-311++G(2df,2p)
SCF_CONVERGENCE = 7
THRESH = 12
SCF_ALGORITHM = DIIS_GDM
solvent_method = SMD
$end

$molecule
read
$end
--------------------------------------------------------------

   26    -646.7162146294      5.55e-08  Convergence criterion met
 Total energy in the final basis set =     -646.7110331622
   26    -646.7162436218      5.72e-08  Convergence criterion met
 Total energy in the final basis set =     -646.7110611248
   26    -646.7162668561      5.83e-08  Convergence criterion met
 Total energy in the final basis set =     -646.7110830625
   26    -646.7162842168      5.94e-08  Convergence criterion met
 Total energy in the final basis set =     -646.7110991525
   26    -646.7162965589      5.97e-08  Convergence criterion met
 Total energy in the final basis set =     -646.7111098316
   26    -646.7163032616      6.06e-08  Convergence criterion met
 Total energy in the final basis set =     -646.7111151038

             Standard Nuclear Orientation (Angstroms)
    I     Atom           X                Y                Z
 ----------------------------------------------------------------
    1      O       0.9863786334    -0.7277017022     0.2431372294
    2      C       2.2809832116    -0.2485899790    -0.0626964326
    3      C       2.7820803057     0.6980485948     1.0094389159
    4      O       2.0128853643     0.9095691819     1.9704649205
    5      C       4.0735771173     1.2567779561     0.8018733079
    6      C       4.7580626527     2.1377217661     1.6030881704
    7      C       4.2151611665     2.9881039990     2.7313152983
    8      O       3.5069480026     4.0794901394     2.1611266694
    9      O       3.4449817137     2.3024861703     3.6793064579
   10      H       0.7541421394    -0.3157929120     1.0912279768
   11      H       2.2742025208     0.2790930864    -1.0193444622
   12      H       2.9839714075    -1.0805671368    -0.1491762279
   13      H       4.5751054064     0.9191419639    -0.0968766393
   14      H       5.6627842829     2.5593671250     1.1842538647
   15      H       5.0473984440     3.4350082456     3.2665314635
   16      H       2.8438867479     3.7277570658     1.5534013006
   17      H       2.8005516219     1.7514424349     3.1806576308
   18      O       6.0101946484     1.0734699070     2.8679786368
   19      O       7.0751141130     1.7636269938     3.1691893192
 ----------------------------------------------------------------

   25    -646.7163055106      9.86e-08  Convergence criterion met
 Total energy in the final basis set =     -646.7111158058
 Final energy is   -646.711115805791
 **  OPTIMIZATION CONVERGED  **

                    Orbital Energies (a.u.)
 --------------------------------------------------------------

 Alpha MOs
 -- Occupied --
-19.3723 -19.3589 -19.3424 -19.3337 -19.3262 -19.3261 -10.4431 -10.4331
-10.3858 -10.3854 -10.3227  -1.2552  -1.1949  -1.1814  -1.1430  -1.1228
 -0.9256  -0.8836  -0.8505  -0.7992  -0.7298  -0.6568  -0.6431  -0.6355
 -0.6016  -0.5967  -0.5788  -0.5572  -0.5544  -0.5381  -0.5299  -0.5257
 -0.4974  -0.4896  -0.4822  -0.4721  -0.4509  -0.4149  -0.4024  -0.3932
 -0.3712  -0.3635  -0.3381  -0.2926

 Beta MOs
 -- Occupied --
-19.3577 -19.3435 -19.3424 -19.3337 -19.3263 -19.3261 -10.4431 -10.4331
-10.3859 -10.3854 -10.3228  -1.2255  -1.1948  -1.1816  -1.1431  -1.1228
 -0.9229  -0.8601  -0.8340  -0.7992  -0.7297  -0.6567  -0.6428  -0.6354
 -0.6014  -0.5950  -0.5789  -0.5413  -0.5395  -0.5297  -0.5155  -0.4980
 -0.4864  -0.4830  -0.4719  -0.4606  -0.4494  -0.4142  -0.4016  -0.3933
 -0.3712  -0.3562  -0.2749

          Ground-State Mulliken Net Atomic Charges

     Atom                 Charge (a.u.)    Spin (a.u.)
  --------------------------------------------------------
      1 O                    -0.461370      -0.000054
      2 C                    -0.538716       0.000282
      3 C                     0.448004      -0.004885
      4 O                    -0.575883      -0.006513
      5 C                    -0.135741      -0.006098
      6 C                    -0.254281      -0.002310
      7 C                    -0.346864      -0.007657
      8 O                    -0.404106      -0.000996
      9 O                    -0.489410       0.003103
     10 H                     0.347038       0.000061
     11 H                     0.211822      -0.000241
     12 H                     0.208184      -0.000463
     13 H                     0.285607       0.000487
     14 H                     0.335035      -0.000320
     15 H                     0.268031      -0.000630
     16 H                     0.332611       0.000114
     17 H                     0.400062      -0.000318
     18 O                    -0.218947       0.486098
     19 O                    -0.411076       0.540341
  --------------------------------------------------------
  Sum of atomic charges =    -1.000000

                    Cartesian Multipole Moments
 -----------------------------------------------------------------
    Charge (ESU x 10^10)
                -4.8032
    Dipole Moment (Debye)
         X     -23.0842      Y      -7.1618      Z     -16.8110
       Tot      29.4412
    Quadrupole Moments (Debye-Ang)
        XX    -210.4726     XY     -40.4858     YY     -92.5957
        XZ     -88.5586     YZ     -30.9178     ZZ    -123.9651

 Total job time:  13188.20s(wall), 186586.20s(cpu)
        *  Thank you very much for using Q-Chem.  Have a nice day.  *
