 Q-Chem 5.4, Q-Chem, Inc., Pleasanton, CA (2021)
 Q-Chem 5.4.1 for Intel X86 EM64T Linux

User input:
--------------------------------------------------------------
$molecule
0 2
C         2.3933011767   -1.0092531978   -0.9494533288
O         1.1454541618   -0.7223250869   -0.3651960457
C         3.4644114298   -0.4989429957    0.0352642237
O         3.4257056803   -1.3484646556    1.1427902312
C         3.3010003111    0.9278403127    0.3865907803
H         2.5037625890   -0.5025317401   -1.9049966674
H         0.4659882081   -0.8575363479   -1.0355436143
H         2.6964498882    1.1882492152    1.2407965474
H         3.6712101394    1.6977398625   -0.2711676930
O         2.5452001211   -2.3812855146   -1.2080936865
H         2.5659421141   -2.8467409548   -0.3610106393
O         4.7714989222   -0.7597202089   -0.5386740507
O         4.9214455069    0.0044832675   -1.7325110410
H         3.8644383191   -0.9148629448    1.8852190188
H         5.4571237324    0.7542028890   -1.4344134345
$end

$rem
BASIS = 6-311++G(2df,2p)
GUI = 2
JOB_TYPE = Frequency
METHOD = wB97M-V
SOLVENT_METHOD = SMD
SCF_ALGORITHM = DIIS_GDM
MAX_SCF_CYCLES = 400
SCF_CONVERGENCE = 7
THRESH = 12
$end
--------------------------------------------------------------

   16    -494.5390980408      5.29e-08  Convergence criterion met
 Total energy in the final basis set =     -494.5330140384
   14    -494.5390939412      9.91e-08  Convergence criterion met
 Total energy in the final basis set =     -494.5330130157
   14    -494.5391004560      9.79e-08  Convergence criterion met
 Total energy in the final basis set =     -494.5330130389
   14    -494.5390922024      9.96e-08  Convergence criterion met
 Total energy in the final basis set =     -494.5330129177
   14    -494.5391021175      9.89e-08  Convergence criterion met
 Total energy in the final basis set =     -494.5330129530
   14    -494.5390968630      9.87e-08  Convergence criterion met
 Total energy in the final basis set =     -494.5330128642
   14    -494.5390969714      9.86e-08  Convergence criterion met
 Total energy in the final basis set =     -494.5330128739
   14    -494.5391010869      9.91e-08  Convergence criterion met
 Total energy in the final basis set =     -494.5330133951
   14    -494.5390966463      9.87e-08  Convergence criterion met
 Total energy in the final basis set =     -494.5330134908
   14    -494.5390985069      9.91e-08  Convergence criterion met
 Total energy in the final basis set =     -494.5330137385
   14    -494.5390970010      9.87e-08  Convergence criterion met
 Total energy in the final basis set =     -494.5330137645
   14    -494.5390979511      9.92e-08  Convergence criterion met
 Total energy in the final basis set =     -494.5330134711
   14    -494.5390970169      9.88e-08  Convergence criterion met
 Total energy in the final basis set =     -494.5330134921
   14    -494.5390975086      9.90e-08  Convergence criterion met
 Total energy in the final basis set =     -494.5330138809
   14    -494.5390981839      9.87e-08  Convergence criterion met
 Total energy in the final basis set =     -494.5330138063

                    Orbital Energies (a.u.)
 --------------------------------------------------------------

 Alpha MOs
 -- Occupied --
-19.4039 -19.3980 -19.3615 -19.3485 -19.3477 -10.4667 -10.4492 -10.3575
 -1.2783  -1.2127  -1.1837  -1.1381  -1.0382  -0.8885  -0.8085  -0.7359
 -0.6897  -0.6510  -0.6432  -0.6095  -0.5816  -0.5769  -0.5631  -0.5345
 -0.5144  -0.4896  -0.4629  -0.4512  -0.4340  -0.4154  -0.4134  -0.3968
 -0.3212

 Beta MOs
 -- Occupied --
-19.4032 -19.3980 -19.3611 -19.3482 -19.3474 -10.4676 -10.4483 -10.3444
 -1.2772  -1.2118  -1.1826  -1.1373  -1.0371  -0.8755  -0.7916  -0.7314
 -0.6877  -0.6500  -0.6387  -0.6011  -0.5799  -0.5749  -0.5598  -0.5328
 -0.5054  -0.4850  -0.4605  -0.4496  -0.4323  -0.4130  -0.4068  -0.3924

          Ground-State Mulliken Net Atomic Charges

     Atom                 Charge (a.u.)    Spin (a.u.)
  --------------------------------------------------------
      1 C                    -0.136411       0.026759
      2 O                    -0.423511       0.004914
      3 C                     0.258424      -0.033357
      4 O                    -0.414893       0.008688
      5 C                    -0.477514       0.984976
      6 H                     0.276204       0.003585
      7 H                     0.341074      -0.000684
      8 H                     0.234680      -0.011768
      9 H                     0.229079      -0.012517
     10 O                    -0.444962       0.008345
     11 H                     0.350365      -0.000780
     12 O                    -0.195341       0.018986
     13 O                    -0.276635       0.001386
     14 H                     0.346230       0.000415
     15 H                     0.333210       0.001051
  --------------------------------------------------------
  Sum of atomic charges =     0.000000

                    Cartesian Multipole Moments
 -----------------------------------------------------------------
    Charge (ESU x 10^10)
                 0.0000
    Dipole Moment (Debye)
         X      -0.2032      Y       4.4364      Z       1.5775
       Tot       4.7129
    Quadrupole Moments (Debye-Ang)
        XX     -45.7226     XY      20.3989     YY     -50.4150
        XZ      10.9768     YZ      -5.9431     ZZ     -46.2260

             Standard Nuclear Orientation (Angstroms)
    I     Atom           X                Y                Z
 ----------------------------------------------------------------
    1      C       2.3933011767    -1.0092531978    -0.9494533288
    2      O       1.1454541618    -0.7223250869    -0.3651960457
    3      C       3.4644114298    -0.4989429957     0.0352642237
    4      O       3.4257056803    -1.3484646556     1.1427902312
    5      C       3.3010003111     0.9278403127     0.3865907803
    6      H       2.5037625890    -0.5025317401    -1.9049966674
    7      H       0.4659882081    -0.8575363479    -1.0355436143
    8      H       2.6964498882     1.1882492152     1.2407965474
    9      H       3.6712101394     1.6977398625    -0.2711676930
   10      O       2.5452001211    -2.3812855146    -1.2080936865
   11      H       2.5659421141    -2.8467409548    -0.3610106393
   12      O       4.7714989222    -0.7597202089    -0.5386740507
   13      O       4.9214455069     0.0044832675    -1.7325110410
   14      H       3.8644383191    -0.9148629448     1.8852190188
   15      H       5.4571237324     0.7542028890    -1.4344134345
 ----------------------------------------------------------------

 Frequency:        50.72                  75.34                 135.88
 Force Cnst:      0.0016                 0.0225                 0.0493
 Red. Mass:       1.0535                 6.7206                 4.5308
 IR Intens:        7.395                  3.366                  7.243
 Frequency:       219.33                 242.78                 265.15
 Force Cnst:      0.1050                 0.0930                 0.0444
 Red. Mass:       3.7054                 2.6781                 1.0708
 IR Intens:       72.062                 21.010                198.377
 Frequency:       289.85                 307.50                 336.31
 Force Cnst:      0.2261                 0.0812                 0.1019
 Red. Mass:       4.5671                 1.4579                 1.5288
 IR Intens:        2.363                271.415                 64.727
 Frequency:       368.64                 384.59                 408.63
 Force Cnst:      0.1612                 0.1332                 0.1745
 Red. Mass:       2.0139                 1.5281                 1.7740
 IR Intens:       98.807                 78.107                118.152
 Frequency:       487.07                 519.22                 567.45
 Force Cnst:      0.5675                 0.5490                 0.8118
 Red. Mass:       4.0601                 3.4565                 4.2789
 IR Intens:       11.081                 34.094                 17.643
 Frequency:       584.23                 678.04                 807.60
 Force Cnst:      0.5227                 1.2047                 1.3776
 Red. Mass:       2.5993                 4.4475                 3.5849
 IR Intens:      143.557                 48.629                 76.223
 Frequency:       927.07                1015.00                1053.14
 Force Cnst:      1.1101                 3.5524                 2.8759
 Red. Mass:       2.1922                 5.8524                 4.4010
 IR Intens:       59.949                 22.653                 54.068
 Frequency:      1105.77                1177.21                1219.49
 Force Cnst:      1.6159                 1.5888                 1.1394
 Red. Mass:       2.2429                 1.9458                 1.3003
 IR Intens:      276.120                167.932                 32.145
 Frequency:      1272.41                1287.78                1330.84
 Force Cnst:      2.2944                 2.7584                 3.0657
 Red. Mass:       2.4053                 2.8231                 2.9378
 IR Intens:      152.424                359.542                107.739
 Frequency:      1359.04                1408.96                1438.84
 Force Cnst:      1.7699                 1.3204                 1.5699
 Red. Mass:       1.6264                 1.1289                 1.2870
 IR Intens:       15.834                 74.170                 75.990
 Frequency:      1443.63                1464.05                3136.51
 Force Cnst:      1.6232                 2.1597                 6.3082
 Red. Mass:       1.3220                 1.7101                 1.0883
 IR Intens:       26.965                 79.934                 23.169
 Frequency:      3185.15                3301.87                3762.41
 Force Cnst:      6.2814                 7.2057                 8.9120
 Red. Mass:       1.0509                 1.1218                 1.0685
 IR Intens:        0.203                  0.081                134.437
 Frequency:      3781.54                3804.15                3824.77
 Force Cnst:      8.9787                 9.0961                 9.1938
 Red. Mass:       1.0657                 1.0668                 1.0667
 IR Intens:      132.319                168.414                144.238

 STANDARD THERMODYNAMIC QUANTITIES AT   298.15 K  AND     1.00 ATM

   This Molecule has  0 Imaginary Frequencies
   Zero point vibrational energy:       70.089 kcal/mol

   Atom    1 Element C  Has Mass   12.00000
   Atom    2 Element O  Has Mass   15.99491
   Atom    3 Element C  Has Mass   12.00000
   Atom    4 Element O  Has Mass   15.99491
   Atom    5 Element C  Has Mass   12.00000
   Atom    6 Element H  Has Mass    1.00783
   Atom    7 Element H  Has Mass    1.00783
   Atom    8 Element H  Has Mass    1.00783
   Atom    9 Element H  Has Mass    1.00783
   Atom   10 Element O  Has Mass   15.99491
   Atom   11 Element H  Has Mass    1.00783
   Atom   12 Element O  Has Mass   15.99491
   Atom   13 Element O  Has Mass   15.99491
   Atom   14 Element H  Has Mass    1.00783
   Atom   15 Element H  Has Mass    1.00783
   Molecular Mass:   123.029360 amu
   Principal axes and moments of inertia in amu*Bohr^2:
                             1           2           3
    Eigenvalues --      676.31691  1013.95627  1142.89353
          X               0.90753    -0.14476    -0.39425
          Y               0.40284     0.56552     0.71966
          Z              -0.11878     0.81193    -0.57154
   Rotational Symmetry Number is   1
   The Molecule is an Asymmetric Top
   Translational Enthalpy:        0.889 kcal/mol
   Rotational Enthalpy:           0.889 kcal/mol
   Vibrational Enthalpy:         74.604 kcal/mol
   gas constant (RT):             0.592 kcal/mol
   Translational Entropy:        40.336  cal/mol.K
   Rotational Entropy:           28.151  cal/mol.K
   Vibrational Entropy:          27.575  cal/mol.K

   Total Enthalpy:               76.974 kcal/mol
   Total Entropy:                96.062  cal/mol.K
 Total job time:  8895.52s(wall), 125723.11s(cpu)
        *  Thank you very much for using Q-Chem.  Have a nice day.  *
