 Q-Chem 5.4, Q-Chem, Inc., Pleasanton, CA (2021)
 Q-Chem 5.4.1 for Intel X86 EM64T Linux

User input:
--------------------------------------------------------------
$molecule
0 2
C         2.3802935007   -1.0014066005   -0.9573593264
O         1.1378017363   -0.6984577049   -0.3664908411
C         3.4564729392   -0.4948394965    0.0247675365
O         3.3922271143   -1.3501883342    1.1320247236
C         3.3092922588    0.9364138713    0.3839139109
H         2.4969909734   -0.5056974481   -1.9242254265
H         0.4556068514   -0.9287668221   -1.0189194236
H         2.6711350582    1.2030027604    1.2174203377
H         3.6904797708    1.7104156697   -0.2699699373
O         2.5300940484   -2.3778396611   -1.1999352592
H         2.5698113748   -2.8059039936   -0.3253028490
O         4.7603268282   -0.7760417324   -0.5448565268
O         4.9260327986    0.0282158395   -1.7211036922
H         3.9270642517   -0.9578962533    1.8436938732
H         5.4893027953    0.7498418057   -1.3840564995
$end

$rem
BASIS = 6-311++G(2df,2p)
GUI = 2
JOB_TYPE = Optimization
METHOD = wB97M-V
SCF_ALGORITHM = DIIS_GDM
MAX_SCF_CYCLES = 400
GEOM_OPT_MAX_CYCLES = 150
SCF_CONVERGENCE = 7
THRESH = 12
Solvent_method = SMD
$end
--------------------------------------------------------------

   16    -494.5383887875      4.07e-08  Convergence criterion met
 Total energy in the final basis set =     -494.5323467052
   14    -494.5389790000      8.14e-08  Convergence criterion met
 Total energy in the final basis set =     -494.5328937265
   14    -494.5389066760      9.06e-08  Convergence criterion met
 Total energy in the final basis set =     -494.5328612876
   14    -494.5390663119      9.05e-08  Convergence criterion met
 Total energy in the final basis set =     -494.5329637440
   15    -494.5390771916      1.22e-08  Convergence criterion met
 Total energy in the final basis set =     -494.5329869411
   14    -494.5390893409      9.71e-08  Convergence criterion met
 Total energy in the final basis set =     -494.5330026350
   14    -494.5390978919      9.54e-08  Convergence criterion met
 Total energy in the final basis set =     -494.5330125065
   14    -494.5390983719      9.95e-08  Convergence criterion met
 Total energy in the final basis set =     -494.5330136785

             Standard Nuclear Orientation (Angstroms)
    I     Atom           X                Y                Z
 ----------------------------------------------------------------
    1      C       2.3933011767    -1.0092531978    -0.9494533288
    2      O       1.1454541618    -0.7223250869    -0.3651960457
    3      C       3.4644114298    -0.4989429957     0.0352642237
    4      O       3.4257056803    -1.3484646556     1.1427902312
    5      C       3.3010003111     0.9278403127     0.3865907803
    6      H       2.5037625890    -0.5025317401    -1.9049966674
    7      H       0.4659882081    -0.8575363479    -1.0355436143
    8      H       2.6964498882     1.1882492152     1.2407965474
    9      H       3.6712101394     1.6977398625    -0.2711676930
   10      O       2.5452001211    -2.3812855146    -1.2080936865
   11      H       2.5659421141    -2.8467409548    -0.3610106393
   12      O       4.7714989222    -0.7597202089    -0.5386740507
   13      O       4.9214455069     0.0044832675    -1.7325110410
   14      H       3.8644383191    -0.9148629448     1.8852190188
   15      H       5.4571237324     0.7542028890    -1.4344134345
 ----------------------------------------------------------------

   14    -494.5390980405      9.93e-08  Convergence criterion met
 Total energy in the final basis set =     -494.5330140381
 Final energy is   -494.533014038111
 **  OPTIMIZATION CONVERGED  **

                    Orbital Energies (a.u.)
 --------------------------------------------------------------

 Alpha MOs
 -- Occupied --
-19.4039 -19.3980 -19.3615 -19.3485 -19.3477 -10.4667 -10.4492 -10.3575
 -1.2782  -1.2127  -1.1837  -1.1381  -1.0382  -0.8884  -0.8085  -0.7359
 -0.6897  -0.6510  -0.6432  -0.6095  -0.5816  -0.5770  -0.5631  -0.5345
 -0.5144  -0.4896  -0.4629  -0.4512  -0.4340  -0.4154  -0.4134  -0.3968
 -0.3212

 Beta MOs
 -- Occupied --
-19.4032 -19.3980 -19.3611 -19.3482 -19.3474 -10.4676 -10.4483 -10.3445
 -1.2772  -1.2118  -1.1826  -1.1373  -1.0370  -0.8755  -0.7916  -0.7314
 -0.6876  -0.6500  -0.6387  -0.6011  -0.5799  -0.5749  -0.5598  -0.5328
 -0.5054  -0.4850  -0.4605  -0.4496  -0.4323  -0.4130  -0.4068  -0.3924

          Ground-State Mulliken Net Atomic Charges

     Atom                 Charge (a.u.)    Spin (a.u.)
  --------------------------------------------------------
      1 C                    -0.136377       0.026755
      2 O                    -0.423508       0.004914
      3 C                     0.258431      -0.033343
      4 O                    -0.414895       0.008690
      5 C                    -0.477516       0.984965
      6 H                     0.276199       0.003585
      7 H                     0.341077      -0.000684
      8 H                     0.234690      -0.011768
      9 H                     0.229062      -0.012516
     10 O                    -0.444964       0.008345
     11 H                     0.350367      -0.000780
     12 O                    -0.195453       0.018983
     13 O                    -0.276627       0.001386
     14 H                     0.346227       0.000414
     15 H                     0.333287       0.001053
  --------------------------------------------------------
  Sum of atomic charges =     0.000000

                    Cartesian Multipole Moments
 -----------------------------------------------------------------
    Charge (ESU x 10^10)
                 0.0000
    Dipole Moment (Debye)
         X      -0.2034      Y       4.4363      Z       1.5788
       Tot       4.7132
    Quadrupole Moments (Debye-Ang)
        XX     -45.7247     XY      20.3983     YY     -50.4157
        XZ      10.9848     YZ      -5.9405     ZZ     -46.2298

 Total job time:  878.26s(wall), 12459.47s(cpu)
        *  Thank you very much for using Q-Chem.  Have a nice day.  *
