 Q-Chem 5.4, Q-Chem, Inc., Pleasanton, CA (2021)
 Q-Chem 5.4.1 for Intel X86 EM64T Linux

User input:
--------------------------------------------------------------
$molecule
-1 2
O         0.9879815493   -0.4133232738    0.5064653645
C         2.3633144963   -0.2466804327    0.1801266098
C         3.0297607542    0.6881874497    1.1748947109
O         2.5278900850    0.6281110211    2.3693362738
C         4.0761921885    1.4557335787    0.7520580355
C         4.9433946839    2.2889248690    1.6184610193
C         4.2497253373    3.2440551233    2.6017540797
O         3.3740634643    4.0693836365    1.8643615600
O         3.5937609338    2.5737532575    3.6435928789
H         0.9466964409   -0.2447479555    1.4612883296
H         2.4384228972    0.1382863672   -0.8345893332
H         2.8760019178   -1.2135240861    0.2209076008
H         4.3587218055    1.3845655282   -0.2893273893
H         5.6359877043    2.8736125450    1.0177914711
H         4.9818142724    3.9063698528    3.0583931213
H         2.9041681189    3.5011231313    1.2351507771
H         3.1280735749    1.7763647696    3.2401519871
O         5.8133053511    1.3872627392    2.4304578528
O         6.8504669005    2.0086623121    2.9153742199
H         4.7874619997    2.0389338177    4.9372463541
O         5.4190454053    1.7771262833    5.6330095621
H         6.2371878188    1.6107582658    5.1530226143
$end

$rem
BASIS = 6-311++G(2df,2p)
GUI = 2
JOB_TYPE = Frequency
METHOD = wB97M-V
SOLVENT_METHOD = SMD
SCF_ALGORITHM = DIIS_GDM
MAX_SCF_CYCLES = 400
SCF_CONVERGENCE = 7
THRESH = 12
$end
--------------------------------------------------------------

   22    -723.1793000350      5.40e-08  Convergence criterion met
 Total energy in the final basis set =     -723.1735772318
   20    -723.1792995789      9.48e-08  Convergence criterion met
 Total energy in the final basis set =     -723.1735765911
   20    -723.1792992684      9.49e-08  Convergence criterion met
 Total energy in the final basis set =     -723.1735766456
   20    -723.1793000602      9.49e-08  Convergence criterion met
 Total energy in the final basis set =     -723.1735770976
   20    -723.1792997652      9.48e-08  Convergence criterion met
 Total energy in the final basis set =     -723.1735771187
   20    -723.1792990608      9.49e-08  Convergence criterion met
 Total energy in the final basis set =     -723.1735762788
   20    -723.1792990022      9.49e-08  Convergence criterion met
 Total energy in the final basis set =     -723.1735761771
   20    -723.1792986215      9.50e-08  Convergence criterion met
 Total energy in the final basis set =     -723.1735765648
   20    -723.1792989042      9.51e-08  Convergence criterion met
 Total energy in the final basis set =     -723.1735763474
   20    -723.1792999153      9.46e-08  Convergence criterion met
 Total energy in the final basis set =     -723.1735763730
   20    -723.1792987083      9.51e-08  Convergence criterion met
 Total energy in the final basis set =     -723.1735766446
   20    -723.1792996698      9.46e-08  Convergence criterion met
 Total energy in the final basis set =     -723.1735771142
   20    -723.1793003259      9.50e-08  Convergence criterion met
 Total energy in the final basis set =     -723.1735772738
   20    -723.1793002050      9.55e-08  Convergence criterion met
 Total energy in the final basis set =     -723.1735770800
   20    -723.1792993289      9.34e-08  Convergence criterion met
 Total energy in the final basis set =     -723.1735768472

                    Orbital Energies (a.u.)
 --------------------------------------------------------------

 Alpha MOs
 -- Occupied --
-19.4546 -19.4085 -19.3411 -19.3280 -19.3242 -19.3181 -19.2891 -10.4411
-10.4016 -10.3961 -10.3756 -10.3065  -1.3334  -1.1928  -1.1572  -1.1296
 -1.1216  -1.1074  -1.0074  -0.8840  -0.8385  -0.7916  -0.7348  -0.6602
 -0.6564  -0.6383  -0.6266  -0.6224  -0.6072  -0.6019  -0.5769  -0.5684
 -0.5633  -0.5250  -0.5059  -0.4993  -0.4891  -0.4839  -0.4731  -0.4509
 -0.4364  -0.4228  -0.4196  -0.3994  -0.3992  -0.3884  -0.3783  -0.3514
 -0.2985

 Beta MOs
 -- Occupied --
-19.4434 -19.3905 -19.3411 -19.3280 -19.3242 -19.3180 -19.2890 -10.4408
-10.4020 -10.3961 -10.3756 -10.3065  -1.3066  -1.1925  -1.1571  -1.1295
 -1.1215  -1.1073  -0.9796  -0.8761  -0.8333  -0.7910  -0.7319  -0.6567
 -0.6435  -0.6288  -0.6256  -0.6169  -0.6007  -0.5859  -0.5710  -0.5624
 -0.5366  -0.5185  -0.5037  -0.4944  -0.4875  -0.4748  -0.4724  -0.4479
 -0.4359  -0.4203  -0.4097  -0.3991  -0.3853  -0.3794  -0.3522  -0.2974

          Ground-State Mulliken Net Atomic Charges

     Atom                 Charge (a.u.)    Spin (a.u.)
  --------------------------------------------------------
      1 O                    -0.458831      -0.000020
      2 C                    -0.433216      -0.000736
      3 C                     0.276698       0.003709
      4 O                    -0.706449       0.001388
      5 C                    -0.247401      -0.000457
      6 C                    -0.439068      -0.004026
      7 C                    -0.252696       0.010201
      8 O                    -0.414426       0.001339
      9 O                    -0.476777       0.002609
     10 H                     0.334666       0.000062
     11 H                     0.195729       0.000156
     12 H                     0.189603      -0.000126
     13 H                     0.272157      -0.000282
     14 H                     0.323562       0.005236
     15 H                     0.272745       0.000050
     16 H                     0.326945       0.000105
     17 H                     0.409856      -0.000690
     18 O                     0.087412       0.340152
     19 O                    -0.250668       0.641097
     20 H                     0.420879      -0.002701
     21 O                    -0.747612       0.002393
     22 H                     0.316893       0.000542
  --------------------------------------------------------
  Sum of atomic charges =    -1.000000

                    Cartesian Multipole Moments
 -----------------------------------------------------------------
    Charge (ESU x 10^10)
                -4.8032
    Dipole Moment (Debye)
         X     -15.9193      Y      -6.9914      Z     -17.1611
       Tot      24.4297
    Quadrupole Moments (Debye-Ang)
        XX    -147.0603     XY     -28.1610     YY     -99.2515
        XZ     -73.3060     YZ     -31.4735     ZZ    -150.7264

             Standard Nuclear Orientation (Angstroms)
    I     Atom           X                Y                Z
 ----------------------------------------------------------------
    1      O       0.9879815493    -0.4133232738     0.5064653645
    2      C       2.3633144963    -0.2466804327     0.1801266098
    3      C       3.0297607542     0.6881874497     1.1748947109
    4      O       2.5278900850     0.6281110211     2.3693362738
    5      C       4.0761921885     1.4557335787     0.7520580355
    6      C       4.9433946839     2.2889248690     1.6184610193
    7      C       4.2497253373     3.2440551233     2.6017540797
    8      O       3.3740634643     4.0693836365     1.8643615600
    9      O       3.5937609338     2.5737532575     3.6435928789
   10      H       0.9466964409    -0.2447479555     1.4612883296
   11      H       2.4384228972     0.1382863672    -0.8345893332
   12      H       2.8760019178    -1.2135240861     0.2209076008
   13      H       4.3587218055     1.3845655282    -0.2893273893
   14      H       5.6359877043     2.8736125450     1.0177914711
   15      H       4.9818142724     3.9063698528     3.0583931213
   16      H       2.9041681189     3.5011231313     1.2351507771
   17      H       3.1280735749     1.7763647696     3.2401519871
   18      O       5.8133053511     1.3872627392     2.4304578528
   19      O       6.8504669005     2.0086623121     2.9153742199
   20      H       4.7874619997     2.0389338177     4.9372463541
   21      O       5.4190454053     1.7771262833     5.6330095621
   22      H       6.2371878188     1.6107582658     5.1530226143
 ----------------------------------------------------------------

 Frequency:        26.66                  43.72                  62.28
 Force Cnst:      0.0033                 0.0054                 0.0218
 Red. Mass:       7.7677                 4.7974                 9.5474
 IR Intens:        0.541                  5.584                  1.252
 Frequency:        81.15                  83.76                 105.79
 Force Cnst:      0.0211                 0.0347                 0.0310
 Red. Mass:       5.4259                 8.4034                 4.7001
 IR Intens:        5.259                  1.627                  3.885
 Frequency:       117.95                 158.88                 199.64
 Force Cnst:      0.0677                 0.0938                 0.0558
 Red. Mass:       8.2586                 6.3089                 2.3742
 IR Intens:        3.802                 12.324                 51.112
 Frequency:       204.41                 239.69                 292.67
 Force Cnst:      0.0344                 0.2131                 0.2937
 Red. Mass:       1.3993                 6.2964                 5.8205
 IR Intens:      122.638                  7.610                 16.271
 Frequency:       306.78                 341.45                 357.13
 Force Cnst:      0.1800                 0.2473                 0.1175
 Red. Mass:       3.2469                 3.6007                 1.5635
 IR Intens:       78.491                101.917                157.269
 Frequency:       361.44                 397.41                 428.77
 Force Cnst:      0.1248                 0.1358                 0.1472
 Red. Mass:       1.6210                 1.4596                 1.3590
 IR Intens:       75.812                104.412                140.132
 Frequency:       488.90                 557.07                 572.38
 Force Cnst:      0.8230                 1.0119                 1.0477
 Red. Mass:       5.8439                 5.5342                 5.4278
 IR Intens:       18.674                 65.202                 15.359
 Frequency:       594.12                 605.49                 698.93
 Force Cnst:      0.4586                 0.2952                 0.3716
 Red. Mass:       2.2050                 1.3668                 1.2911
 IR Intens:      195.513                 60.729                 90.841
 Frequency:       706.64                 805.19                 842.09
 Force Cnst:      1.1079                 1.6358                 1.6984
 Red. Mass:       3.7658                 4.2825                 4.0652
 IR Intens:       20.920                 86.687                  5.232
 Frequency:       906.93                 915.49                 955.09
 Force Cnst:      0.8020                 1.0460                 2.2699
 Red. Mass:       1.6549                 2.1182                 4.2235
 IR Intens:      233.907                 16.820                 94.835
 Frequency:      1009.66                1061.87                1116.70
 Force Cnst:      1.1584                 3.4282                 1.7737
 Red. Mass:       1.9286                 5.1603                 2.4141
 IR Intens:       49.740                201.760                 55.354
 Frequency:      1194.82                1198.24                1226.95
 Force Cnst:      1.3197                 1.2897                 1.2003
 Red. Mass:       1.5689                 1.5246                 1.3532
 IR Intens:      234.016                157.839                124.144
 Frequency:      1240.98                1270.05                1293.02
 Force Cnst:      2.2199                14.3185                 1.4192
 Red. Mass:       2.4466                15.0664                 1.4407
 IR Intens:      301.396                 16.562                 76.580
 Frequency:      1312.00                1325.22                1344.23
 Force Cnst:      1.2049                 1.7584                 1.7919
 Red. Mass:       1.1881                 1.6994                 1.6831
 IR Intens:       20.026                 41.049                103.167
 Frequency:      1360.74                1418.08                1438.63
 Force Cnst:      1.8202                 1.6661                 1.6533
 Red. Mass:       1.6685                 1.4062                 1.3558
 IR Intens:      290.025                232.270                185.591
 Frequency:      1443.34                1479.61                1574.25
 Force Cnst:      2.6903                 1.4014                 1.7112
 Red. Mass:       2.1919                 1.0865                 1.1719
 IR Intens:      243.098                 18.221                105.616
 Frequency:      1598.89                1617.43                2870.14
 Force Cnst:      7.9204                 1.6594                 5.2512
 Red. Mass:       5.2585                 1.0766                 1.0819
 IR Intens:      569.451                151.824               2160.030
 Frequency:      3022.42                3120.41                3120.98
 Force Cnst:      5.7574                 6.2364                 6.2772
 Red. Mass:       1.0697                 1.0871                 1.0938
 IR Intens:       57.530                  6.280                 34.164
 Frequency:      3129.41                3193.93                3562.59
 Force Cnst:      6.2749                 6.5486                 7.9442
 Red. Mass:       1.0875                 1.0896                 1.0623
 IR Intens:       23.002                 16.122                829.460
 Frequency:      3687.93                3719.76                3848.43
 Force Cnst:      8.5330                 8.6885                 9.3152
 Red. Mass:       1.0648                 1.0658                 1.0675
 IR Intens:      207.733                181.426                131.153

 STANDARD THERMODYNAMIC QUANTITIES AT   298.15 K  AND     1.00 ATM

   This Molecule has  0 Imaginary Frequencies
   Zero point vibrational energy:      103.299 kcal/mol

   Atom    1 Element O  Has Mass   15.99491
   Atom    2 Element C  Has Mass   12.00000
   Atom    3 Element C  Has Mass   12.00000
   Atom    4 Element O  Has Mass   15.99491
   Atom    5 Element C  Has Mass   12.00000
   Atom    6 Element C  Has Mass   12.00000
   Atom    7 Element C  Has Mass   12.00000
   Atom    8 Element O  Has Mass   15.99491
   Atom    9 Element O  Has Mass   15.99491
   Atom   10 Element H  Has Mass    1.00783
   Atom   11 Element H  Has Mass    1.00783
   Atom   12 Element H  Has Mass    1.00783
   Atom   13 Element H  Has Mass    1.00783
   Atom   14 Element H  Has Mass    1.00783
   Atom   15 Element H  Has Mass    1.00783
   Atom   16 Element H  Has Mass    1.00783
   Atom   17 Element H  Has Mass    1.00783
   Atom   18 Element O  Has Mass   15.99491
   Atom   19 Element O  Has Mass   15.99491
   Atom   20 Element H  Has Mass    1.00783
   Atom   21 Element O  Has Mass   15.99491
   Atom   22 Element H  Has Mass    1.00783
   Molecular Mass:   182.042670 amu
   Principal axes and moments of inertia in amu*Bohr^2:
                             1           2           3
    Eigenvalues --     1416.29501  3572.66928  3615.73773
          X               0.68650     0.00737     0.72710
          Y               0.42241     0.80987    -0.40703
          Z               0.59185    -0.58656    -0.55286
   Rotational Symmetry Number is   1
   The Molecule is an Asymmetric Top
   Translational Enthalpy:        0.889 kcal/mol
   Rotational Enthalpy:           0.889 kcal/mol
   Vibrational Enthalpy:        110.787 kcal/mol
   gas constant (RT):             0.592 kcal/mol
   Translational Entropy:        41.504  cal/mol.K
   Rotational Entropy:           31.281  cal/mol.K
   Vibrational Entropy:          50.992  cal/mol.K

   Total Enthalpy:              113.157 kcal/mol
   Total Entropy:               123.777  cal/mol.K
 Total job time:  44455.98s(wall), 626502.16s(cpu)
        *  Thank you very much for using Q-Chem.  Have a nice day.  *
