 Q-Chem 5.4, Q-Chem, Inc., Pleasanton, CA (2021)
 Q-Chem 5.4.1 for Intel X86 EM64T Linux

User input:
--------------------------------------------------------------
$molecule
-1 2
O         1.0052081611   -0.5083770776    0.5501571510
C         2.3282218576   -0.2179571379    0.1263188474
C         3.0072656439    0.6909017020    1.1512711643
O         2.4949164305    0.5940115590    2.3383741923
C         4.0655771171    1.4653721234    0.7494374507
C         4.9432085314    2.2474761731    1.6549037225
C         4.2475299764    3.2105470355    2.6345554867
O         3.4086190034    4.0571644218    1.8804547474
O         3.5574821382    2.5462227967    3.6628556244
H         1.0519456476   -0.3138532307    1.5113956314
H         2.3006859165    0.2539777672   -0.8612295304
H         2.9165890687   -1.1448313523    0.0368605888
H         4.3723828745    1.3967768684   -0.2905823316
H         5.6777799690    2.8193324768    1.0842846237
H         4.9865847205    3.8520966947    3.1203801275
H         2.9748402684    3.4780514521    1.2223780606
H         3.0906964005    1.7553177450    3.2431561661
O         5.7562823219    1.3024514561    2.4815380254
O         6.8094031616    1.8961314184    2.9907648342
H         4.7850566510    2.1458018644    4.9598933726
O         5.5209640546    2.0393883048    5.5997963097
H         6.2221977855    1.6669357391    5.0429634353
$end

$rem
BASIS = 6-311++G(2df,2p)
GUI = 2
JOB_TYPE = Optimization
METHOD = wB97M-V
SCF_ALGORITHM = DIIS_GDM
MAX_SCF_CYCLES = 400
GEOM_OPT_MAX_CYCLES = 150
SCF_CONVERGENCE = 7
THRESH = 12
Solvent_method = SMD
$end
--------------------------------------------------------------

   22    -723.1777817020      7.86e-08  Convergence criterion met
 Total energy in the final basis set =     -723.1722088469
   21    -723.1767915425      2.34e-08  Convergence criterion met
 Total energy in the final basis set =     -723.1712499977
   20    -723.1773382236      7.08e-08  Convergence criterion met
 Total energy in the final basis set =     -723.1715865286
   20    -723.1784980972      6.09e-08  Convergence criterion met
 Total energy in the final basis set =     -723.1728347052
   20    -723.1786676466      9.33e-08  Convergence criterion met
 Total energy in the final basis set =     -723.1730372117
   21    -723.1787202316      2.26e-08  Convergence criterion met
 Total energy in the final basis set =     -723.1730342706
   21    -723.1789756130      4.13e-08  Convergence criterion met
 Total energy in the final basis set =     -723.1732999597
   20    -723.1790257147      8.72e-08  Convergence criterion met
   21    -723.1792656456      5.70e-08  Convergence criterion met
 Total energy in the final basis set =     -723.1735518771
   21    -723.1792745446      6.70e-08  Convergence criterion met
 Total energy in the final basis set =     -723.1735635973
   21    -723.1792804425      7.18e-08  Convergence criterion met
 Total energy in the final basis set =     -723.1735692849
   21    -723.1792854013      7.20e-08  Convergence criterion met
 Total energy in the final basis set =     -723.1735727854
   21    -723.1792905236      6.98e-08  Convergence criterion met
 Total energy in the final basis set =     -723.1735749468
   20    -723.1792956804      9.25e-08  Convergence criterion met
 Total energy in the final basis set =     -723.1735763569

             Standard Nuclear Orientation (Angstroms)
    I     Atom           X                Y                Z
 ----------------------------------------------------------------
    1      O       0.9879815493    -0.4133232738     0.5064653645
    2      C       2.3633144963    -0.2466804327     0.1801266098
    3      C       3.0297607542     0.6881874497     1.1748947109
    4      O       2.5278900850     0.6281110211     2.3693362738
    5      C       4.0761921885     1.4557335787     0.7520580355
    6      C       4.9433946839     2.2889248690     1.6184610193
    7      C       4.2497253373     3.2440551233     2.6017540797
    8      O       3.3740634643     4.0693836365     1.8643615600
    9      O       3.5937609338     2.5737532575     3.6435928789
   10      H       0.9466964409    -0.2447479555     1.4612883296
   11      H       2.4384228972     0.1382863672    -0.8345893332
   12      H       2.8760019178    -1.2135240861     0.2209076008
   13      H       4.3587218055     1.3845655282    -0.2893273893
   14      H       5.6359877043     2.8736125450     1.0177914711
   15      H       4.9818142724     3.9063698528     3.0583931213
   16      H       2.9041681189     3.5011231313     1.2351507771
   17      H       3.1280735749     1.7763647696     3.2401519871
   18      O       5.8133053511     1.3872627392     2.4304578528
   19      O       6.8504669005     2.0086623121     2.9153742199
   20      H       4.7874619997     2.0389338177     4.9372463541
   21      O       5.4190454053     1.7771262833     5.6330095621
   22      H       6.2371878188     1.6107582658     5.1530226143
 ----------------------------------------------------------------

   20    -723.1793000361      9.44e-08  Convergence criterion met
 Total energy in the final basis set =     -723.1735772329
 Final energy is   -723.173577232888
 **  OPTIMIZATION CONVERGED  **

                    Orbital Energies (a.u.)
 --------------------------------------------------------------

 Alpha MOs
 -- Occupied --
-19.4546 -19.4085 -19.3411 -19.3280 -19.3242 -19.3180 -19.2891 -10.4411
-10.4016 -10.3961 -10.3756 -10.3065  -1.3334  -1.1928  -1.1572  -1.1297
 -1.1217  -1.1074  -1.0074  -0.8840  -0.8385  -0.7916  -0.7348  -0.6602
 -0.6564  -0.6383  -0.6268  -0.6224  -0.6072  -0.6019  -0.5769  -0.5684
 -0.5633  -0.5250  -0.5059  -0.4993  -0.4891  -0.4839  -0.4731  -0.4509
 -0.4364  -0.4228  -0.4196  -0.3994  -0.3992  -0.3884  -0.3783  -0.3514
 -0.2985

 Beta MOs
 -- Occupied --
-19.4434 -19.3905 -19.3411 -19.3280 -19.3242 -19.3180 -19.2890 -10.4408
-10.4020 -10.3961 -10.3756 -10.3065  -1.3066  -1.1925  -1.1571  -1.1295
 -1.1215  -1.1073  -0.9796  -0.8761  -0.8333  -0.7910  -0.7319  -0.6567
 -0.6435  -0.6288  -0.6257  -0.6169  -0.6007  -0.5859  -0.5710  -0.5624
 -0.5366  -0.5185  -0.5036  -0.4944  -0.4875  -0.4748  -0.4724  -0.4479
 -0.4359  -0.4203  -0.4097  -0.3991  -0.3853  -0.3794  -0.3522  -0.2974

          Ground-State Mulliken Net Atomic Charges

     Atom                 Charge (a.u.)    Spin (a.u.)
  --------------------------------------------------------
      1 O                    -0.458831      -0.000020
      2 C                    -0.433224      -0.000737
      3 C                     0.276736       0.003710
      4 O                    -0.706450       0.001388
      5 C                    -0.247521      -0.000456
      6 C                    -0.439015      -0.004028
      7 C                    -0.252653       0.010201
      8 O                    -0.414430       0.001339
      9 O                    -0.476770       0.002610
     10 H                     0.334666       0.000062
     11 H                     0.195729       0.000156
     12 H                     0.189602      -0.000126
     13 H                     0.272151      -0.000282
     14 H                     0.323568       0.005236
     15 H                     0.272742       0.000049
     16 H                     0.326949       0.000105
     17 H                     0.409855      -0.000691
     18 O                     0.087377       0.340127
     19 O                    -0.250673       0.641127
     20 H                     0.420931      -0.002703
     21 O                    -0.747541       0.002387
     22 H                     0.316805       0.000544
  --------------------------------------------------------
  Sum of atomic charges =    -1.000000

                    Cartesian Multipole Moments
 -----------------------------------------------------------------
    Charge (ESU x 10^10)
                -4.8032
    Dipole Moment (Debye)
         X     -15.9188      Y      -6.9915      Z     -17.1594
       Tot      24.4281
    Quadrupole Moments (Debye-Ang)
        XX    -147.0543     XY     -28.1603     YY     -99.2512
        XZ     -73.2917     YZ     -31.4709     ZZ    -150.7099

 Total job time:  7516.44s(wall), 105750.77s(cpu)
        *  Thank you very much for using Q-Chem.  Have a nice day.  *
