 Q-Chem 5.4, Q-Chem, Inc., Pleasanton, CA (2021)
 Q-Chem 5.4.1 for Intel X86 EM64T Linux

User input:
--------------------------------------------------------------
$molecule
0 2
C         1.1721199476    4.3194969512    1.3611603150
C         1.2828169949    2.8626384628    1.2846857499
C         0.2326112362    2.1060064573    0.8284041854
C        -0.8590349677    2.7506815480    0.2620922090
C        -0.9452901903    4.1560898597    0.1340564971
C         0.0644170044    4.9252301395    0.6034264526
H         0.7614088085    4.4112255700    2.4022060087
H         2.1639907381    2.4133293287    1.7209388077
H         0.2754833950    1.0279742641    0.8547354828
H        -1.7983455325    4.5945485881   -0.3608268164
O         2.3969503572    5.0011426767    1.3171576594
H         2.8495354084    4.5879889130    0.5532675708
O         3.9613766700    2.5918664849   -0.3393291319
O         2.8479937976    3.2104667919   -0.6782138380
H         0.0559497010    6.0035408755    0.5173760217
H        -1.6730283685    2.1505287887   -0.1228625739
$end

$rem
BASIS = 6-311++G(2df,2p)
GUI = 2
JOB_TYPE = Frequency
METHOD = wB97M-V
SOLVENT_METHOD = SMD
SCF_ALGORITHM = DIIS_GDM
MAX_SCF_CYCLES = 400
SCF_CONVERGENCE = 7
THRESH = 12
$end

--------------------------------------------------------------

   29    -458.3140735740      5.60e-08  Convergence criterion met
 Total energy in the final basis set =     -458.3102969028
   28    -458.3140794934      6.60e-08  Convergence criterion met
 Total energy in the final basis set =     -458.3102957727
   28    -458.3140657172      7.27e-08  Convergence criterion met
 Total energy in the final basis set =     -458.3102957719
   28    -458.3140762699      6.77e-08  Convergence criterion met
 Total energy in the final basis set =     -458.3102958756
   28    -458.3140689089      6.91e-08  Convergence criterion met
 Total energy in the final basis set =     -458.3102958624
   28    -458.3140727959      7.34e-08  Convergence criterion met
 Total energy in the final basis set =     -458.3102961913
   28    -458.3140729434      6.28e-08  Convergence criterion met
 Total energy in the final basis set =     -458.3102962061
   28    -458.3140727207      7.27e-08  Convergence criterion met
 Frequency:      -180.81                  44.37                  56.44
 Force Cnst:      0.1475                 0.0066                 0.0192
 Red. Mass:       7.6603                 5.6731                10.2513
 IR Intens:      257.236                  2.531                  4.772
 Frequency:       117.77                 160.98                 227.95
 Force Cnst:      0.0955                 0.0581                 0.2971
 Red. Mass:      11.6843                 3.8021                 9.7037
 IR Intens:       10.514                  5.174                 61.859
 Frequency:       321.49                 407.78                 411.06
 Force Cnst:      0.1953                 0.3004                 0.3721
 Red. Mass:       3.2069                 3.0656                 3.7376
 IR Intens:       26.618                  9.169                 15.915
 Frequency:       519.29                 586.79                 606.65
 Force Cnst:      0.8636                 1.2576                 0.3916
 Red. Mass:       5.4354                 6.1991                 1.8058
 IR Intens:        5.456                  7.261                146.153
 Frequency:       628.63                 766.38                 785.68
 Force Cnst:      0.2646                 1.0970                 0.4908
 Red. Mass:       1.1363                 3.1700                 1.3493
 IR Intens:      189.108                 22.776                 20.774
 Frequency:       807.11                 971.10                 981.67
 Force Cnst:      0.5245                 0.7236                 1.5704
 Red. Mass:       1.3665                 1.3023                 2.7659
 IR Intens:       70.165                 83.786                 13.215
 Frequency:      1020.89                1045.18                1060.49
 Force Cnst:      1.4636                 0.9047                 0.9858
 Red. Mass:       2.3834                 1.4056                 1.4877
 IR Intens:        6.936                 34.652                 48.374
 Frequency:      1080.30                1101.05                1133.36
 Force Cnst:      1.0085                 1.0172                 0.9093
 Red. Mass:       1.4667                 1.4241                 1.2015
 IR Intens:        2.704                  9.263                204.013
 Frequency:      1176.19                1182.73                1263.23
 Force Cnst:      0.9188                 0.9291                10.9664
 Red. Mass:       1.1272                 1.1272                11.6641
 IR Intens:       78.985                 37.129                 78.370
 Frequency:      1292.99                1338.19                1363.25
 Force Cnst:      1.6436                 4.6971                 1.5625
 Red. Mass:       1.6686                 4.4519                 1.4270
 IR Intens:       19.379                158.549                130.676
 Frequency:      1420.41                1454.10                1484.71
 Force Cnst:      2.2119                 4.4832                 2.8277
 Red. Mass:       1.8608                 3.5987                 2.1772
 IR Intens:       65.173                684.684                232.013
 Frequency:      1584.43                1661.58                2812.16
 Force Cnst:      5.1923                 9.4999                 4.9844
 Red. Mass:       3.5105                 5.8402                 1.0698
 IR Intens:        8.096                151.320                136.334
 Frequency:      3209.67                3217.98                3225.69
 Force Cnst:      6.6183                 6.6543                 6.6912
 Red. Mass:       1.0904                 1.0907                 1.0915
 IR Intens:        1.115                  0.586                  0.650
 Frequency:      3235.32                3239.76                3481.27
 Force Cnst:      6.7686                 6.7971                 7.6138
 Red. Mass:       1.0975                 1.0991                 1.0663
 IR Intens:        0.874                  0.041                349.838

 STANDARD THERMODYNAMIC QUANTITIES AT   298.15 K  AND     1.00 ATM

   This Molecule has  1 Imaginary Frequencies
   Zero point vibrational energy:       75.033 kcal/mol

   Atom    1 Element C  Has Mass   12.00000
   Atom    2 Element C  Has Mass   12.00000
   Atom    3 Element C  Has Mass   12.00000
   Atom    4 Element C  Has Mass   12.00000
   Atom    5 Element C  Has Mass   12.00000
   Atom    6 Element C  Has Mass   12.00000
   Atom    7 Element H  Has Mass    1.00783
   Atom    8 Element H  Has Mass    1.00783
   Atom    9 Element H  Has Mass    1.00783
   Atom   10 Element H  Has Mass    1.00783
   Atom   11 Element O  Has Mass   15.99491
   Atom   12 Element H  Has Mass    1.00783
   Atom   13 Element O  Has Mass   15.99491
   Atom   14 Element O  Has Mass   15.99491
   Atom   15 Element H  Has Mass    1.00783
   Atom   16 Element H  Has Mass    1.00783
   Molecular Mass:   127.039540 amu
   Principal axes and moments of inertia in amu*Bohr^2:
                             1           2           3
    Eigenvalues --      727.43528  1450.57050  1793.45465
          X               0.98140     0.16702     0.09460
          Y              -0.12477     0.92958    -0.34687
          Z              -0.14588     0.32861     0.93313
   Rotational Symmetry Number is   1
   The Molecule is an Asymmetric Top
   Translational Enthalpy:        0.889 kcal/mol
   Rotational Enthalpy:           0.889 kcal/mol
   Vibrational Enthalpy:         78.662 kcal/mol
   gas constant (RT):             0.592 kcal/mol
   Translational Entropy:        40.431  cal/mol.K
   Rotational Entropy:           29.027  cal/mol.K
   Vibrational Entropy:          23.823  cal/mol.K

   Total Enthalpy:               81.032 kcal/mol
   Total Entropy:                93.281  cal/mol.K
 Total job time:  25505.39s(wall), 324352.69s(cpu)
        *  Thank you very much for using Q-Chem.  Have a nice day.  *
 Q-Chem 5.4, Q-Chem, Inc., Pleasanton, CA (2021)
 Q-Chem 5.4.1 for Intel X86 EM64T Linux

User input:
--------------------------------------------------------------

$molecule
read
$end

$rem
JOBTYPE            rpath
SCF_GUESS          read
RPATH_MAX_CYCLES   30
BASIS = 6-311++G(2df,2p)
METHOD = wB97M-V
SOLVENT_METHOD = SMD
SCF_ALGORITHM = DIIS_GDM
SCF_CONVERGENCE = 7
THRESH = 12
$end
--------------------------------------------------------------

 Total energy in the final basis set =     -458.3102969024
   28    -458.3142429408      8.08e-08  Convergence criterion met
 Total energy in the final basis set =     -458.3104646947
   29    -458.3128578373      5.15e-08  Convergence criterion met
 Total energy in the final basis set =     -458.3090791485
   29    -458.3142444734      9.58e-08  Convergence criterion met
 Total energy in the final basis set =     -458.3104662238
   28    -458.3137465416      8.30e-08  Convergence criterion met
 Total energy in the final basis set =     -458.3099691923
   29    -458.3142841007      6.02e-08  Convergence criterion met
 Total energy in the final basis set =     -458.3105066379
   29    -458.3142419795      9.06e-08  Convergence criterion met
 Total energy in the final basis set =     -458.3104634255
   29    -458.3143211900      6.18e-08  Convergence criterion met
 Total energy in the final basis set =     -458.3105433207

                    Orbital Energies (a.u.)
 --------------------------------------------------------------

 Alpha MOs
 -- Occupied --
-19.3647 -19.3577 -19.3497 -10.4295 -10.4161 -10.4072 -10.3932 -10.3691
-10.3683  -1.2455  -1.1793  -1.0149  -0.9128  -0.8947  -0.8824  -0.7641
 -0.7517  -0.6710  -0.6381  -0.6045  -0.5931  -0.5770  -0.5610  -0.5464
 -0.5404  -0.5213  -0.5030  -0.4815  -0.4729  -0.4438  -0.4143  -0.3812
 -0.3389  -0.3063

 Beta MOs
 -- Occupied --
-19.3508 -19.3496 -19.3421 -10.4295 -10.4163 -10.4074 -10.3933 -10.3691
-10.3682  -1.2162  -1.1788  -1.0150  -0.9125  -0.8947  -0.8403  -0.7640
 -0.7517  -0.6705  -0.6375  -0.6042  -0.5924  -0.5748  -0.5606  -0.5203
 -0.5141  -0.4981  -0.4826  -0.4751  -0.4554  -0.4433  -0.4136  -0.3779
 -0.2842

          Ground-State Mulliken Net Atomic Charges

     Atom                 Charge (a.u.)    Spin (a.u.)
  --------------------------------------------------------
      1 C                    -0.675164      -0.008884
      2 C                     0.490893       0.007696
      3 C                    -0.734328      -0.011845
      4 C                     0.233224       0.003854
      5 C                    -0.625980       0.000385
      6 C                     0.334073      -0.005433
      7 H                     0.235835      -0.001578
      8 H                     0.346248      -0.000418
      9 H                     0.290245      -0.000559
     10 H                     0.293509      -0.000072
     11 O                    -0.367330       0.001690
     12 H                     0.312474      -0.001394
     13 O                    -0.434708       0.547512
     14 O                    -0.329177       0.468461
     15 H                     0.321626       0.000122
     16 H                     0.308559       0.000464
  --------------------------------------------------------
  Sum of atomic charges =    -0.000000

                    Cartesian Multipole Moments
 -----------------------------------------------------------------
    Charge (ESU x 10^10)
                -0.0000
    Dipole Moment (Debye)
         X     -13.1055      Y       0.7243      Z       4.2598
       Tot      13.7995
    Quadrupole Moments (Debye-Ang)
        XX     -92.7899     XY     -40.8103     YY     -43.3741
        XZ       7.3653     YZ      10.3188     ZZ     -51.7784

             Standard Nuclear Orientation (Angstroms)
    I     Atom           X                Y                Z
 ----------------------------------------------------------------
    1      C       1.1721199476     4.3194969512     1.3611603150
    2      C       1.2828169949     2.8626384628     1.2846857499
    3      C       0.2326112362     2.1060064573     0.8284041854
    4      C      -0.8590349677     2.7506815480     0.2620922090
    5      C      -0.9452901903     4.1560898597     0.1340564971
    6      C       0.0644170044     4.9252301395     0.6034264526
    7      H       0.7614088085     4.4112255700     2.4022060087
    8      H       2.1639907381     2.4133293287     1.7209388077
    9      H       0.2754833950     1.0279742641     0.8547354828
   10      H      -1.7983455325     4.5945485881    -0.3608268164
   11      O       2.3969503572     5.0011426767     1.3171576594
   12      H       2.8495354084     4.5879889130     0.5532675708
   13      O       3.9613766700     2.5918664849    -0.3393291319
   14      O       2.8479937976     3.2104667919    -0.6782138380
   15      H       0.0559497010     6.0035408755     0.5173760217
   16      H      -1.6730283685     2.1505287887    -0.1228625739
 ----------------------------------------------------------------

 Total job time:  4232.44s(wall), 53434.55s(cpu)
        *  Thank you very much for using Q-Chem.  Have a nice day.  *
