 Q-Chem 5.4, Q-Chem, Inc., Pleasanton, CA (2021)
 Q-Chem 5.4.1 for Intel X86 EM64T Linux

User input:
--------------------------------------------------------------
$molecule
0 2
C    1.1740722    4.3274681    1.4044916
C    1.2900490    2.8659074    1.3056992
C    0.2477875    2.1103158    0.8466715
C   -0.8522231    2.7384137    0.2606315
C   -0.9195436    4.1530214    0.1234145
C    0.0749914    4.9194035    0.6145665
H    0.7877101    4.4456812    2.4439163
H    2.1668492    2.4131264    1.7463224
H    0.2973690    1.0303740    0.8678941
H   -1.7597968    4.5922198   -0.3916219
O    2.4019152    5.0090348    1.3330490
H    2.8345964    4.6218501    0.5503276
O    3.8740570    2.5953614   -0.3987496
O    2.7122173    3.1525579   -0.6680977
H    0.0616654    5.9972999    0.5210341
H   -1.6027612    2.1407203   -0.2212745
$end

$rem
BASIS = 6-311++G(2df,2p)
GUI = 2
JOB_TYPE = Frequency
METHOD = wB97M-V
SCF_ALGORITHM = DIIS_GDM
MAX_SCF_CYCLES = 400
SCF_CONVERGENCE = 6
THRESH = 11
solvent_method = SMD
$end

--------------------------------------------------------------

   27    -458.3133447312      6.65e-07  Convergence criterion met
 Total energy in the final basis set =     -458.3095788030
   26    -458.3133495281      7.07e-07  Convergence criterion met
 Total energy in the final basis set =     -458.3095780807
   26    -458.3133380383      6.94e-07  Convergence criterion met
 Total energy in the final basis set =     -458.3095772487
   26    -458.3133441730      7.07e-07  Convergence criterion met
 Total energy in the final basis set =     -458.3095753724
   26    -458.3133433577      7.06e-07  Convergence criterion met
 Total energy in the final basis set =     -458.3095801854
   26    -458.3133391095      6.90e-07  Convergence criterion met
 Total energy in the final basis set =     -458.3095732737
   26    -458.3133488440      7.22e-07  Convergence criterion met
 Total energy in the final basis set =     -458.3095828219
   26    -458.3133570792      6.81e-07  Convergence criterion met
 Frequency:      -216.51                  58.50                  73.33
 Force Cnst:      0.2005                 0.0117                 0.0303
 Red. Mass:       7.2578                 5.8190                 9.5678
 IR Intens:      518.463                  4.328                  2.608
 Frequency:       137.35                 155.07                 232.87
 Force Cnst:      0.1070                 0.0601                 0.3057
 Red. Mass:       9.6254                 4.2453                 9.5684
 IR Intens:        7.362                  2.308                 52.007
 Frequency:       312.72                 406.57                 419.49
 Force Cnst:      0.1849                 0.3467                 0.3127
 Red. Mass:       3.2097                 3.5601                 3.0161
 IR Intens:       20.839                  8.419                 11.406
 Frequency:       517.99                 560.74                 584.60
 Force Cnst:      0.7716                 0.2251                 1.0225
 Red. Mass:       4.8809                 1.2150                 5.0780
 IR Intens:        4.313                143.125                 44.829
 Frequency:       607.97                 770.04                 786.84
 Force Cnst:      0.3826                 1.1392                 0.5082
 Red. Mass:       1.7568                 3.2609                 1.3932
 IR Intens:      181.565                 26.917                 14.154
 Frequency:       811.23                 970.58                 984.57
 Force Cnst:      0.5461                 1.3972                 0.7693
 Red. Mass:       1.4084                 2.5174                 1.3469
 IR Intens:       76.330                122.363                 33.185
 Frequency:      1011.88                1039.40                1056.49
 Force Cnst:      1.5490                 0.9167                 0.9604
 Red. Mass:       2.5678                 1.4401                 1.4604
 IR Intens:        6.891                 60.848                 13.864
 Frequency:      1064.67                1100.34                1137.85
 Force Cnst:      1.0336                 0.9679                 0.9273
 Red. Mass:       1.5476                 1.3568                 1.2156
 IR Intens:       80.596                 57.540                357.563
 Frequency:      1160.96                1180.43                1250.23
 Force Cnst:      0.9002                 0.9236                 7.5563
 Red. Mass:       1.1336                 1.1250                 8.2051
 IR Intens:       34.724                 69.321                159.111
 Frequency:      1293.82                1351.80                1355.15
 Force Cnst:      1.6217                 1.5741                 3.7134
 Red. Mass:       1.6443                 1.4621                 3.4320
 IR Intens:       19.580                 97.057                173.556
 Frequency:      1406.56                1450.86                1483.55
 Force Cnst:      2.1632                 4.6864                 2.8987
 Red. Mass:       1.8558                 3.7787                 2.2354
 IR Intens:       42.902                742.371                291.358
 Frequency:      1566.23                1674.71                2872.55
 Force Cnst:      5.2486                10.0712                 5.2094
 Red. Mass:       3.6315                 6.0947                 1.0715
 IR Intens:       17.517                151.253                109.993
 Frequency:      3211.35                3213.37                3231.51
 Force Cnst:      6.6296                 6.6328                 6.7445
 Red. Mass:       1.0911                 1.0903                 1.0962
 IR Intens:        0.587                  0.396                  2.113
 Frequency:      3235.37                3292.88                3595.74
 Force Cnst:      6.7656                 6.9844                 8.1167
 Red. Mass:       1.0970                 1.0933                 1.0655
 IR Intens:        2.406                  0.800                214.564

 STANDARD THERMODYNAMIC QUANTITIES AT   298.15 K  AND     1.00 ATM

   This Molecule has  1 Imaginary Frequencies
   Zero point vibrational energy:       75.236 kcal/mol

   Atom    1 Element C  Has Mass   12.00000
   Atom    2 Element C  Has Mass   12.00000
   Atom    3 Element C  Has Mass   12.00000
   Atom    4 Element C  Has Mass   12.00000
   Atom    5 Element C  Has Mass   12.00000
   Atom    6 Element C  Has Mass   12.00000
   Atom    7 Element H  Has Mass    1.00783
   Atom    8 Element H  Has Mass    1.00783
   Atom    9 Element H  Has Mass    1.00783
   Atom   10 Element H  Has Mass    1.00783
   Atom   11 Element O  Has Mass   15.99491
   Atom   12 Element H  Has Mass    1.00783
   Atom   13 Element O  Has Mass   15.99491
   Atom   14 Element O  Has Mass   15.99491
   Atom   15 Element H  Has Mass    1.00783
   Atom   16 Element H  Has Mass    1.00783
   Molecular Mass:   127.039540 amu
   Principal axes and moments of inertia in amu*Bohr^2:
                             1           2           3
    Eigenvalues --      744.78654  1395.09055  1743.88428
          X               0.97962     0.17847     0.09214
          Y              -0.13173     0.91719    -0.37604
          Z              -0.15162     0.35624     0.92201
   Rotational Symmetry Number is   1
   The Molecule is an Asymmetric Top
   Translational Enthalpy:        0.889 kcal/mol
   Rotational Enthalpy:           0.889 kcal/mol
   Vibrational Enthalpy:         78.834 kcal/mol
   gas constant (RT):             0.592 kcal/mol
   Translational Entropy:        40.431  cal/mol.K
   Rotational Entropy:           28.984  cal/mol.K
   Vibrational Entropy:          22.649  cal/mol.K

   Total Enthalpy:               81.204 kcal/mol
   Total Entropy:                92.064  cal/mol.K
 Total job time:  17854.09s(wall), 259200.88s(cpu)
        *  Thank you very much for using Q-Chem.  Have a nice day.  *
 Q-Chem 5.4, Q-Chem, Inc., Pleasanton, CA (2021)
 Q-Chem 5.4.1 for Intel X86 EM64T Linux

User input:
--------------------------------------------------------------

$rem
JOBTYPE = ts
SCF_GUESS = read
GEOM_OPT_HESSIAN = read
MAX_SCF_CYCLES = 350
GEOM_OPT_DMAX = 60
GEOM_OPT_MAX_CYCLES = 250
METHOD = wB97M-v
BASIS = 6-311++G(2df,2p)
SCF_CONVERGENCE = 7
THRESH = 12
SCF_ALGORITHM = DIIS_GDM
solvent_method = SMD
$end

$molecule
read
$end
--------------------------------------------------------------

   29    -458.3136129359      8.46e-08  Convergence criterion met
 Total energy in the final basis set =     -458.3098466323
   29    -458.3138181613      6.33e-08  Convergence criterion met
 Total energy in the final basis set =     -458.3100514171
   29    -458.3139552389      7.28e-08  Convergence criterion met
 Total energy in the final basis set =     -458.3101870527
   28    -458.3140345020      9.57e-08  Convergence criterion met
 Total energy in the final basis set =     -458.3102639590
   28    -458.3140685199      8.85e-08  Convergence criterion met
 Total energy in the final basis set =     -458.3102946092
   28    -458.3140730475      6.56e-08  Convergence criterion met
 Total energy in the final basis set =     -458.3102968442

             Standard Nuclear Orientation (Angstroms)
    I     Atom           X                Y                Z
 ----------------------------------------------------------------
    1      C       1.1721199476     4.3194969512     1.3611603150
    2      C       1.2828169949     2.8626384628     1.2846857499
    3      C       0.2326112362     2.1060064573     0.8284041854
    4      C      -0.8590349677     2.7506815480     0.2620922090
    5      C      -0.9452901903     4.1560898597     0.1340564971
    6      C       0.0644170044     4.9252301395     0.6034264526
    7      H       0.7614088085     4.4112255700     2.4022060087
    8      H       2.1639907381     2.4133293287     1.7209388077
    9      H       0.2754833950     1.0279742641     0.8547354828
   10      H      -1.7983455325     4.5945485881    -0.3608268164
   11      O       2.3969503572     5.0011426767     1.3171576594
   12      H       2.8495354084     4.5879889130     0.5532675708
   13      O       3.9613766700     2.5918664849    -0.3393291319
   14      O       2.8479937976     3.2104667919    -0.6782138380
   15      H       0.0559497010     6.0035408755     0.5173760217
   16      H      -1.6730283685     2.1505287887    -0.1228625739
 ----------------------------------------------------------------

   28    -458.3140735737      6.97e-08  Convergence criterion met
 Total energy in the final basis set =     -458.3102969024
 Final energy is   -458.310296902409
 **  OPTIMIZATION CONVERGED  **

                    Orbital Energies (a.u.)
 --------------------------------------------------------------

 Alpha MOs
 -- Occupied --
-19.3586 -19.3533 -19.3486 -10.4315 -10.4142 -10.4111 -10.3984 -10.3718
-10.3706  -1.2384  -1.1787  -1.0176  -0.9151  -0.8969  -0.8801  -0.7655
 -0.7543  -0.6718  -0.6389  -0.6068  -0.5938  -0.5777  -0.5631  -0.5419
 -0.5362  -0.5203  -0.5012  -0.4831  -0.4753  -0.4436  -0.4152  -0.3831
 -0.3354  -0.3057

 Beta MOs
 -- Occupied --
-19.3486 -19.3449 -19.3381 -10.4315 -10.4144 -10.4111 -10.3984 -10.3717
-10.3705  -1.2096  -1.1781  -1.0176  -0.9149  -0.8969  -0.8382  -0.7653
 -0.7543  -0.6714  -0.6383  -0.6066  -0.5929  -0.5762  -0.5627  -0.5172
 -0.5145  -0.4932  -0.4846  -0.4770  -0.4526  -0.4428  -0.4140  -0.3794
 -0.2852

          Ground-State Mulliken Net Atomic Charges

     Atom                 Charge (a.u.)    Spin (a.u.)
  --------------------------------------------------------
      1 C                    -0.712222      -0.021428
      2 C                     0.522077       0.023949
      3 C                    -0.744332      -0.022908
      4 C                     0.252209       0.016268
      5 C                    -0.645166      -0.005377
      6 C                     0.383107       0.006325
      7 H                     0.240265       0.000290
      8 H                     0.342674      -0.000315
      9 H                     0.291274      -0.000935
     10 H                     0.293269      -0.000086
     11 O                    -0.365640       0.001863
     12 H                     0.311604      -0.000458
     13 O                    -0.458501       0.537003
     14 O                    -0.344984       0.465343
     15 H                     0.324683      -0.000095
     16 H                     0.309684       0.000560
  --------------------------------------------------------
  Sum of atomic charges =     0.000000

                    Cartesian Multipole Moments
 -----------------------------------------------------------------
    Charge (ESU x 10^10)
                 0.0000
    Dipole Moment (Debye)
         X     -13.9867      Y       0.8223      Z       4.5379
       Tot      14.7274
    Quadrupole Moments (Debye-Ang)
        XX     -95.6320     XY     -43.6562     YY     -42.3807
        XZ       7.7872     YZ      11.2069     ZZ     -51.5864

 Total job time:  1715.61s(wall), 24740.16s(cpu)
        *  Thank you very much for using Q-Chem.  Have a nice day.  *
