 Q-Chem 5.4, Q-Chem, Inc., Pleasanton, CA (2021)
 Q-Chem 5.4.1 for Intel X86 EM64T Linux

User input:
--------------------------------------------------------------
$molecule
1 1
H        -1.1764267247   -0.0719282716   -0.1134863707
O        -0.4643731605    0.5322741648    0.1472500655
H         0.0989277522    0.8515494285   -0.7549061607
H         0.8425890259    2.1217394338   -1.9404474393
O         0.8034424988    1.1631096318   -1.8257047225
H         0.3687809731    0.8173897244   -2.6167919776
H        -0.8820784648    1.3012450881    0.5646410053
$end

$rem
BASIS = 6-311++G(2df,2p)
GUI = 2
JOB_TYPE = Frequency
METHOD = wB97M-V
SOLVENT_METHOD = SMD
SCF_ALGORITHM = DIIS_GDM
MAX_SCF_CYCLES = 400
SCF_CONVERGENCE = 7
THRESH = 12
$end
--------------------------------------------------------------

   11    -153.3143894746      3.62e-08  Convergence criterion met
 Total energy in the final basis set =     -153.3095382347
   10    -153.3143885616      4.91e-08  Convergence criterion met
 Total energy in the final basis set =     -153.3095378134
   10    -153.3143893609      4.88e-08  Convergence criterion met
 Total energy in the final basis set =     -153.3095376299
   10    -153.3143881460      4.92e-08  Convergence criterion met
 Total energy in the final basis set =     -153.3095375978
   10    -153.3143899932      4.88e-08  Convergence criterion met
 Total energy in the final basis set =     -153.3095380620
   10    -153.3143891577      4.91e-08  Convergence criterion met
 Total energy in the final basis set =     -153.3095380408
   10    -153.3143895559      4.89e-08  Convergence criterion met
 Total energy in the final basis set =     -153.3095381941
   10    -153.3143896502      4.88e-08  Convergence criterion met
 Total energy in the final basis set =     -153.3095378548
   10    -153.3143892537      4.99e-08  Convergence criterion met
 Total energy in the final basis set =     -153.3095373428
   10    -153.3143890558      4.87e-08  Convergence criterion met
 Total energy in the final basis set =     -153.3095380174
   10    -153.3143894399      4.89e-08  Convergence criterion met
 Total energy in the final basis set =     -153.3095379992
   10    -153.3143896694      4.89e-08  Convergence criterion met
 Total energy in the final basis set =     -153.3095377832
   10    -153.3143880723      4.92e-08  Convergence criterion met
 Total energy in the final basis set =     -153.3095374797
   10    -153.3143898306      4.88e-08  Convergence criterion met
 Total energy in the final basis set =     -153.3095380654
   10    -153.3143887065      4.91e-08  Convergence criterion met
 Total energy in the final basis set =     -153.3095379925

                    Orbital Energies (a.u.)
 --------------------------------------------------------------

 Alpha MOs
 -- Occupied --
-19.4190 -19.3824  -1.2393  -1.1887  -0.7109  -0.7089  -0.6771  -0.5566
 -0.5363  -0.4748

          Ground-State Mulliken Net Atomic Charges

     Atom                 Charge (a.u.)
  ----------------------------------------
      1 H                     0.378476
      2 O                    -0.454699
      3 H                     0.562021
      4 H                     0.363573
      5 O                    -0.591245
      6 H                     0.363457
      7 H                     0.378417
  ----------------------------------------
  Sum of atomic charges =     1.000000

                    Cartesian Multipole Moments
 -----------------------------------------------------------------
    Charge (ESU x 10^10)
                 4.8032
    Dipole Moment (Debye)
         X      -3.2816      Y       5.6123      Z      -4.8177
       Tot       8.0918
    Quadrupole Moments (Debye-Ang)
        XX      -9.7124     XY       0.2429     YY      -1.2238
        XZ      -1.3822     YZ      -5.9168     ZZ       0.4844

             Standard Nuclear Orientation (Angstroms)
    I     Atom           X                Y                Z
 ----------------------------------------------------------------
    1      H      -1.1764267247    -0.0719282716    -0.1134863707
    2      O      -0.4643731605     0.5322741648     0.1472500655
    3      H       0.0989277522     0.8515494285    -0.7549061607
    4      H       0.8425890259     2.1217394338    -1.9404474393
    5      O       0.8034424988     1.1631096318    -1.8257047225
    6      H       0.3687809731     0.8173897244    -2.6167919776
    7      H      -0.8820784648     1.3012450881     0.5646410053
 ----------------------------------------------------------------

 Frequency:        60.64                 314.51                 418.03
 Force Cnst:      0.0023                 0.1679                 0.1056
 Red. Mass:       1.0461                 2.8809                 1.0258
 IR Intens:        0.330                837.307                 31.447
 Frequency:       469.03                 640.02                 726.19
 Force Cnst:      0.1445                 0.2839                 0.3421
 Red. Mass:       1.1151                 1.1763                 1.1011
 IR Intens:      280.872                299.839                 10.452
 Frequency:      1207.66                1275.92                1608.19
 Force Cnst:      1.0412                 1.0544                 1.6376
 Red. Mass:       1.2116                 1.0993                 1.0747
 IR Intens:     2839.498                820.520                463.635
 Frequency:      1670.05                1776.75                3737.23
 Force Cnst:      1.7840                 1.9412                 8.5910
 Red. Mass:       1.0856                 1.0437                 1.0440
 IR Intens:      388.446                124.633                149.674
 Frequency:      3773.28                3799.85                3846.45
 Force Cnst:      8.7669                 9.2136                 9.4373
 Red. Mass:       1.0451                 1.0830                 1.0826
 IR Intens:      103.075                360.532                276.446

 STANDARD THERMODYNAMIC QUANTITIES AT   298.15 K  AND     1.00 ATM

   This Molecule has  0 Imaginary Frequencies
   Zero point vibrational energy:       36.202 kcal/mol

   Atom    1 Element H  Has Mass    1.00783
   Atom    2 Element O  Has Mass   15.99491
   Atom    3 Element H  Has Mass    1.00783
   Atom    4 Element H  Has Mass    1.00783
   Atom    5 Element O  Has Mass   15.99491
   Atom    6 Element H  Has Mass    1.00783
   Atom    7 Element H  Has Mass    1.00783
   Molecular Mass:    37.028970 amu
   Principal axes and moments of inertia in amu*Bohr^2:
                             1           2           3
    Eigenvalues --       11.46325   206.11436   211.93922
          X              -0.52260     0.25403     0.81385
          Y              -0.26241     0.86032    -0.43703
          Z               0.81119     0.44196     0.38294
   Rotational Symmetry Number is   1
   The Molecule is an Asymmetric Top
   Translational Enthalpy:        0.889 kcal/mol
   Rotational Enthalpy:           0.889 kcal/mol
   Vibrational Enthalpy:         37.478 kcal/mol
   gas constant (RT):             0.592 kcal/mol
   Translational Entropy:        36.757  cal/mol.K
   Rotational Entropy:           20.843  cal/mol.K
   Vibrational Entropy:           8.163  cal/mol.K

   Total Enthalpy:               39.848 kcal/mol
   Total Entropy:                65.762  cal/mol.K
 Total job time:  326.10s(wall), 5017.23s(cpu)
        *  Thank you very much for using Q-Chem.  Have a nice day.  *
