 Q-Chem 5.4, Q-Chem, Inc., Pleasanton, CA (2021)
 Q-Chem 5.4.2 for Intel X86 EM64T Linux

User input:
--------------------------------------------------------------
$molecule
1 1
H   -1.4535104    0.1894817   -0.1420526
O   -0.6038892    0.3298634    0.3468661
H    0.0905986    0.3349061   -0.3588954
H    0.5501287    2.3119691   -2.2522735
O    1.0258303    1.4617568   -2.0750750
H    0.6304232    0.8183112   -2.7155373
H   -0.6487193    1.2690909    0.6575221
$end

$rem
BASIS = 6-311++G(2df,2p)
GUI = 2
JOB_TYPE = Optimization
METHOD = wB97M-V
SCF_ALGORITHM = DIIS_GDM
MAX_SCF_CYCLES = 400
GEOM_OPT_MAX_CYCLES = 150
SCF_CONVERGENCE = 7
THRESH = 12
Solvent_method = SMD
$end
--------------------------------------------------------------

   11    -153.2989028449      7.75e-08  Convergence criterion met
 Total energy in the final basis set =     -153.2936776739
   10    -153.3015560355      5.50e-08  Convergence criterion met
 Total energy in the final basis set =     -153.2963908802
   10    -153.3025957299      9.25e-08  Convergence criterion met
 Total energy in the final basis set =     -153.2974675984
   10    -153.3037688740      8.80e-08  Convergence criterion met
 Total energy in the final basis set =     -153.2986858426
   10    -153.3050352261      7.99e-08  Convergence criterion met
 Total energy in the final basis set =     -153.2999977747
   10    -153.3063432181      7.14e-08  Convergence criterion met
 Total energy in the final basis set =     -153.3013590796
   10    -153.3077647445      6.49e-08  Convergence criterion met
 Total energy in the final basis set =     -153.3028278725
   10    -153.3091049840      5.88e-08  Convergence criterion met
   10    -153.3143715988      5.10e-08  Convergence criterion met
 Total energy in the final basis set =     -153.3095226146
   10    -153.3143753544      5.14e-08  Convergence criterion met
 Total energy in the final basis set =     -153.3095265507
   10    -153.3143779205      5.09e-08  Convergence criterion met
 Total energy in the final basis set =     -153.3095295726
   10    -153.3143810068      5.03e-08  Convergence criterion met
 Total energy in the final basis set =     -153.3095325575
   10    -153.3143851827      4.96e-08  Convergence criterion met
 Total energy in the final basis set =     -153.3095358780
   10    -153.3143879881      4.92e-08  Convergence criterion met
 Total energy in the final basis set =     -153.3095375032

             Standard Nuclear Orientation (Angstroms)
    I     Atom           X                Y                Z
 ----------------------------------------------------------------
    1      H      -1.1764267247    -0.0719282716    -0.1134863707
    2      O      -0.4643731605     0.5322741648     0.1472500655
    3      H       0.0989277522     0.8515494285    -0.7549061607
    4      H       0.8425890259     2.1217394338    -1.9404474393
    5      O       0.8034424988     1.1631096318    -1.8257047225
    6      H       0.3687809731     0.8173897244    -2.6167919776
    7      H      -0.8820784648     1.3012450881     0.5646410053
 ----------------------------------------------------------------

   10    -153.3143894747      4.91e-08  Convergence criterion met
 Total energy in the final basis set =     -153.3095382348
 Final energy is   -153.309538234795
 **  OPTIMIZATION CONVERGED  **

                    Orbital Energies (a.u.)
 --------------------------------------------------------------

 Alpha MOs
 -- Occupied --
-19.4190 -19.3824  -1.2392  -1.1887  -0.7109  -0.7089  -0.6771  -0.5566
 -0.5362  -0.4747

          Ground-State Mulliken Net Atomic Charges

     Atom                 Charge (a.u.)
  ----------------------------------------
      1 H                     0.378470
      2 O                    -0.454932
      3 H                     0.561978
      4 H                     0.363579
      5 O                    -0.591242
      6 H                     0.363458
      7 H                     0.378688
  ----------------------------------------
  Sum of atomic charges =     1.000000

                    Cartesian Multipole Moments
 -----------------------------------------------------------------
    Charge (ESU x 10^10)
                 4.8032
    Dipole Moment (Debye)
         X      -3.2816      Y       5.6126      Z      -4.8153
       Tot       8.0906
    Quadrupole Moments (Debye-Ang)
        XX      -9.7130     XY       0.2429     YY      -1.2242
        XZ      -1.3845     YZ      -5.9133     ZZ       0.4872

 Total job time:  372.87s(wall), 2720.87s(cpu)
        *  Thank you very much for using Q-Chem.  Have a nice day.  *
