 Q-Chem 5.4, Q-Chem, Inc., Pleasanton, CA (2021)
 Q-Chem 5.4.1 for Intel X86 EM64T Linux

User input:
--------------------------------------------------------------
$molecule
0 2
H    0.2887567    0.6866748    1.7490557
C   -0.1833941    0.9824095    0.8219490
C   -1.5799260    1.3509465    0.8478773
H   -2.0942043    1.3637886    1.7991431
C   -2.2289085    1.7532639   -0.2933123
H   -3.2703884    2.0415417   -0.2584090
C   -1.5911445    1.5877179   -1.5124570
H   -2.1037007    1.8234803   -2.4362067
C   -0.1018670    1.4216554   -1.6115186
H   -0.0677387    0.1877996   -2.1427200
C    0.5247037    1.0318678   -0.3135422
H    1.5834273    0.8075187   -0.3273561
O    0.6255621    2.3704823   -2.4016896
H    0.4086109    2.5023557   -3.3320084
O   -1.1834328   -1.1698050   -2.3913988
O   -2.1716280   -0.4656772   -2.1794835
$end

$rem
BASIS = 6-311++G(2df,2p)
GUI = 2
JOB_TYPE = Frequency
METHOD = wB97M-V
SCF_ALGORITHM = DIIS_GDM
MAX_SCF_CYCLES = 400
SCF_CONVERGENCE = 6
THRESH = 11
solvent_method = SMD
$end

--------------------------------------------------------------

   21    -458.2939044026      3.74e-07  Convergence criterion met
 Total energy in the final basis set =     -458.2894792260
   21    -458.2939040351      9.75e-07  Convergence criterion met
 Total energy in the final basis set =     -458.2894786879
   21    -458.2939043664      9.76e-07  Convergence criterion met
 Total energy in the final basis set =     -458.2894793597
   21    -458.2939008510      9.73e-07  Convergence criterion met
 Total energy in the final basis set =     -458.2894757808
   21    -458.2939077671      9.73e-07  Convergence criterion met
 Total energy in the final basis set =     -458.2894824836
   21    -458.2939022554      9.75e-07  Convergence criterion met
 Total energy in the final basis set =     -458.2894767435
   21    -458.2939055554      9.79e-07  Convergence criterion met
 Total energy in the final basis set =     -458.2894807122
   21    -458.2938706696      9.99e-07  Convergence criterion met
 Frequency:      -982.01                -369.12                -227.36
 Force Cnst:      0.8818                 0.1010                 0.2026
 Red. Mass:       1.5520                 1.2579                 6.6531
 IR Intens:     5583.903                167.668                295.558
 Frequency:      -136.90                 115.41                 193.53
 Force Cnst:      0.1316                 0.0482                 0.0896
 Red. Mass:      11.9136                 6.1355                 4.0581
 IR Intens:       31.236                 14.750                  6.552
 Frequency:       267.23                 326.93                 386.85
 Force Cnst:      0.2255                 0.2836                 0.4821
 Red. Mass:       5.3604                 4.5030                 5.4675
 IR Intens:       73.856                228.050                254.189
 Frequency:       423.13                 466.15                 573.26
 Force Cnst:      0.3590                 0.5186                 0.8545
 Red. Mass:       3.4029                 4.0507                 4.4131
 IR Intens:        2.702                 33.611                  4.251
 Frequency:       588.06                 664.64                 744.07
 Force Cnst:      0.9500                 0.7107                 0.5598
 Red. Mass:       4.6628                 2.7306                 1.7162
 IR Intens:       25.688                 21.709                314.208
 Frequency:       828.23                 847.35                 959.44
 Force Cnst:      0.5930                 0.7614                 1.9392
 Red. Mass:       1.4673                 1.7997                 3.5756
 IR Intens:       52.477                140.802                 19.303
 Frequency:       975.46                 978.68                1008.31
 Force Cnst:      0.8023                 1.3331                 0.8118
 Red. Mass:       1.4311                 2.3622                 1.3553
 IR Intens:      104.749                 66.077                103.770
 Frequency:      1031.22                1034.48                1067.72
 Force Cnst:      0.8452                 1.1652                 3.2269
 Red. Mass:       1.3489                 1.8480                 4.8041
 IR Intens:        3.763                242.516                474.443
 Frequency:      1119.85                1159.16                1166.51
 Force Cnst:      0.9622                 0.9590                 0.9994
 Red. Mass:       1.3022                 1.2114                 1.2466
 IR Intens:      124.228                509.649                 69.744
 Frequency:      1189.73                1226.06                1353.97
 Force Cnst:      0.9451                 1.6697                 1.5715
 Red. Mass:       1.1333                 1.8852                 1.4550
 IR Intens:      355.162               3741.444                 49.360
 Frequency:      1360.42                1438.14                1468.14
 Force Cnst:      1.8659                 2.5563                 2.3404
 Red. Mass:       1.7111                 2.0978                 1.8429
 IR Intens:       26.082                 67.572                135.363
 Frequency:      1484.77                1541.06                1689.78
 Force Cnst:      2.8078                 4.5369                 9.6409
 Red. Mass:       2.1617                 3.2424                 5.7307
 IR Intens:      510.747                  3.767                 19.268
 Frequency:      3191.07                3192.51                3203.16
 Force Cnst:      6.5244                 6.5242                 6.5920
 Red. Mass:       1.0875                 1.0865                 1.0905
 IR Intens:        8.623                  6.959                 28.713
 Frequency:      3209.88                3219.12                3817.16
 Force Cnst:      6.6622                 6.7089                 9.1728
 Red. Mass:       1.0975                 1.0988                 1.0685
 IR Intens:       17.685                 12.506                219.560

 STANDARD THERMODYNAMIC QUANTITIES AT   298.15 K  AND     1.00 ATM

   This Molecule has  4 Imaginary Frequencies
   Zero point vibrational energy:       70.779 kcal/mol

   Atom    1 Element H  Has Mass    1.00783
   Atom    2 Element C  Has Mass   12.00000
   Atom    3 Element C  Has Mass   12.00000
   Atom    4 Element H  Has Mass    1.00783
   Atom    5 Element C  Has Mass   12.00000
   Atom    6 Element H  Has Mass    1.00783
   Atom    7 Element C  Has Mass   12.00000
   Atom    8 Element H  Has Mass    1.00783
   Atom    9 Element C  Has Mass   12.00000
   Atom   10 Element H  Has Mass    1.00783
   Atom   11 Element C  Has Mass   12.00000
   Atom   12 Element H  Has Mass    1.00783
   Atom   13 Element O  Has Mass   15.99491
   Atom   14 Element H  Has Mass    1.00783
   Atom   15 Element O  Has Mass   15.99491
   Atom   16 Element O  Has Mass   15.99491
   Molecular Mass:   127.039540 amu
   Principal axes and moments of inertia in amu*Bohr^2:
                             1           2           3
    Eigenvalues --      982.54597  1193.43530  1543.84072
          X               0.30480     0.71690    -0.62702
          Y               0.60339     0.36402     0.70951
          Z               0.73690    -0.59460    -0.32162
   Rotational Symmetry Number is   1
   The Molecule is an Asymmetric Top
   Translational Enthalpy:        0.889 kcal/mol
   Rotational Enthalpy:           0.889 kcal/mol
   Vibrational Enthalpy:         73.338 kcal/mol
   gas constant (RT):             0.592 kcal/mol
   Translational Entropy:        40.431  cal/mol.K
   Rotational Entropy:           28.983  cal/mol.K
   Vibrational Entropy:          13.810  cal/mol.K

   Total Enthalpy:               75.708 kcal/mol
   Total Entropy:                83.224  cal/mol.K
 Total job time:  15135.02s(wall), 218424.05s(cpu)
        *  Thank you very much for using Q-Chem.  Have a nice day.  *
 Q-Chem 5.4, Q-Chem, Inc., Pleasanton, CA (2021)
 Q-Chem 5.4.1 for Intel X86 EM64T Linux

User input:
--------------------------------------------------------------

$rem
JOBTYPE = ts
SCF_GUESS = read
GEOM_OPT_HESSIAN = read
MAX_SCF_CYCLES = 350
GEOM_OPT_DMAX = 60
GEOM_OPT_MAX_CYCLES = 250
METHOD = wB97M-v
BASIS = 6-311++G(2df,2p)
SCF_CONVERGENCE = 7
THRESH = 12
SCF_ALGORITHM = DIIS_GDM
solvent_method = SMD
$end

$molecule
read
$end
--------------------------------------------------------------

   21    -458.3220495885      7.55e-08  Convergence criterion met
 Total energy in the final basis set =     -458.3178262513
   22    -458.3220477093      5.36e-08  Convergence criterion met
 Total energy in the final basis set =     -458.3178220947
   22    -458.3220444939      3.92e-08  Convergence criterion met
 Total energy in the final basis set =     -458.3178216056
   20    -458.3220407455      7.89e-08  Convergence criterion met
 Total energy in the final basis set =     -458.3178184402
   21    -458.3220460768      9.41e-08  Convergence criterion met
 Total energy in the final basis set =     -458.3178215594
   21    -458.3220513760      9.51e-08  Convergence criterion met
 Total energy in the final basis set =     -458.3178272031

             Standard Nuclear Orientation (Angstroms)
    I     Atom           X                Y                Z
 ----------------------------------------------------------------
    1      H       0.3538277275     0.9036512003     1.8189659341
    2      C      -0.1496079699     1.0818659619     0.8786792805
    3      C      -1.5643248349     1.3223485070     0.8839122512
    4      H      -2.0914377734     1.3313079616     1.8277480351
    5      C      -2.2347331222     1.6077508136    -0.2796354679
    6      H      -3.2848581835     1.8654687650    -0.2541230368
    7      C      -1.5643302426     1.5827134204    -1.5027458846
    8      H      -2.0306143334     1.9919724722    -2.3881131444
    9      C      -0.1131213409     1.2879117928    -1.5838844906
   10      H      -0.0318823544     0.3005081961    -2.0974907068
   11      C       0.5514165556     1.1178727655    -0.2678958732
   12      H       1.6239346942     0.9731628731    -0.2794132593
   13      O       0.6093456464     2.2387886612    -2.3773410720
   14      H       0.3937121047     2.0781577283    -3.3029106983
   15      O      -1.3343969800    -1.0074728977    -2.7826147909
   16      O      -2.2782018933    -0.3999877215    -2.2752141761
 ----------------------------------------------------------------

   22    -458.3220491207      2.87e-08  Convergence criterion met
 Total energy in the final basis set =     -458.3178269324
 Final energy is   -458.317826932416
 **  OPTIMIZATION CONVERGED  **

                    Orbital Energies (a.u.)
 --------------------------------------------------------------

 Alpha MOs
 -- Occupied --
-19.4561 -19.4408 -19.3427 -10.4050 -10.3706 -10.3567 -10.3516 -10.3494
-10.3487  -1.3786  -1.1608  -0.9801  -0.9364  -0.8795  -0.8640  -0.7374
 -0.7234  -0.6524  -0.6419  -0.6328  -0.6241  -0.6049  -0.5849  -0.5682
 -0.5316  -0.5233  -0.4809  -0.4659  -0.4470  -0.4277  -0.4071  -0.3856
 -0.3714  -0.3385

 Beta MOs
 -- Occupied --
-19.4304 -19.4167 -19.3435 -10.4043 -10.3755 -10.3614 -10.3544 -10.3472
-10.3469  -1.3319  -1.1625  -0.9838  -0.8886  -0.8720  -0.8608  -0.7426
 -0.7256  -0.6424  -0.6385  -0.5944  -0.5891  -0.5717  -0.5551  -0.5395
 -0.5312  -0.5223  -0.4800  -0.4691  -0.4549  -0.4312  -0.4036  -0.3574
 -0.2728

          Ground-State Mulliken Net Atomic Charges

     Atom                 Charge (a.u.)    Spin (a.u.)
  --------------------------------------------------------
      1 H                     0.286548      -0.002410
      2 C                    -0.165184       0.102519
      3 C                    -0.395321      -0.328517
      4 H                     0.281097       0.004700
      5 C                    -0.177252       0.160607
      6 H                     0.292126      -0.004527
      7 C                    -0.274623      -0.332355
      8 H                     0.342763       0.012936
      9 C                    -0.247315       0.012327
     10 H                     0.193407      -0.045572
     11 C                    -0.191954      -0.200871
     12 H                     0.287671       0.003754
     13 O                    -0.419949      -0.008509
     14 H                     0.341045      -0.001149
     15 O                    -0.124434       0.795131
     16 O                    -0.028625       0.831937
  --------------------------------------------------------
  Sum of atomic charges =     0.000000

                    Cartesian Multipole Moments
 -----------------------------------------------------------------
    Charge (ESU x 10^10)
                -0.0000
    Dipole Moment (Debye)
         X      -0.7505      Y       0.9286      Z       1.1718
       Tot       1.6729
    Quadrupole Moments (Debye-Ang)
        XX     -51.1512     XY      -8.5353     YY     -60.4131
        XZ      -1.2958     YZ      -3.7260     ZZ     -46.1137

 Total job time:  6652.04s(wall), 96054.81s(cpu)
        *  Thank you very much for using Q-Chem.  Have a nice day.  *
