 Q-Chem 5.4, Q-Chem, Inc., Pleasanton, CA (2021)
 Q-Chem 5.4.1 for Intel X86 EM64T Linux

User input:
--------------------------------------------------------------
$molecule
0 2
C         2.3511776409    0.0289440262   -0.6945353336
O         1.1092619660   -0.5350181823   -0.7988777250
C         2.6799824766    0.3034764829    0.7818966638
O         1.9107701922   -0.0504312223    1.6426012912
C         3.9628745399    1.0279991632    1.0657731743
C         3.7951547523    2.5282739688    0.8399585310
O         2.8791174992    2.9692998722    1.8415757093
O         2.1956096385    4.1318074613    1.3743381791
C         5.1348406484    3.2495951546    0.9675595709
O         5.8963330706    2.8582081230   -0.1509005260
O         4.9846129021    4.6464247776    1.0319744338
H         2.5079357364    0.9033142434   -1.3241656053
H         0.8067275421   -0.4663214119   -1.7131342178
H         4.7530072531    0.6693912781    0.4084559076
H         4.2478733531    0.8434419318    2.1008351934
H         3.3698703044    2.7403255974   -0.1439104822
H         1.3864524473    3.7504403306    1.0012457914
H         5.6337511546    2.9667306199    1.8952457371
H         6.8164578918    3.0950577540    0.0123610228
H         4.4150526876    4.9303125955    0.3055430796
O         3.3443645053   -0.9713116182   -1.1427842274
O         4.2552564978   -0.4578796460   -1.9184239683
$end

$rem
BASIS = 6-311++G(2df,2p)
GUI = 2
JOB_TYPE = Frequency
METHOD = wB97M-V
SOLVENT_METHOD = SMD
SCF_ALGORITHM = DIIS_GDM
MAX_SCF_CYCLES = 400
SCF_CONVERGENCE = 7
THRESH = 12
$end
--------------------------------------------------------------

   23    -797.5816556310      4.73e-08  Convergence criterion met
 Total energy in the final basis set =     -797.5742031752
   20    -797.5816459365      7.76e-08  Convergence criterion met
 Total energy in the final basis set =     -797.5742025615
   20    -797.5816637543      7.90e-08  Convergence criterion met
 Total energy in the final basis set =     -797.5742022674
   20    -797.5816510115      8.70e-08  Convergence criterion met
 Total energy in the final basis set =     -797.5742020882
   20    -797.5816583689      6.51e-08  Convergence criterion met
 Total energy in the final basis set =     -797.5742023922
   20    -797.5816535278      9.05e-08  Convergence criterion met
 Total energy in the final basis set =     -797.5742023065
   21    -797.5816558615      4.82e-08  Convergence criterion met
 Total energy in the final basis set =     -797.5742021739
   20    -797.5816635035      8.54e-08  Convergence criterion met
 Total energy in the final basis set =     -797.5742026754
   20    -797.5816554457      8.41e-08  Convergence criterion met
 Total energy in the final basis set =     -797.5742029227
   20    -797.5816551830      7.88e-08  Convergence criterion met
 Total energy in the final basis set =     -797.5742026641
   20    -797.5816551053      7.86e-08  Convergence criterion met
 Total energy in the final basis set =     -797.5742027126
   20    -797.5816553570      8.50e-08  Convergence criterion met
 Total energy in the final basis set =     -797.5742029804
   20    -797.5816555393      7.72e-08  Convergence criterion met
 Total energy in the final basis set =     -797.5742030043
   20    -797.5816553594      7.81e-08  Convergence criterion met
 Total energy in the final basis set =     -797.5742028928
   20    -797.5816552570      9.48e-08  Convergence criterion met
 Total energy in the final basis set =     -797.5742028119

                    Orbital Energies (a.u.)
 --------------------------------------------------------------

 Alpha MOs
 -- Occupied --
-19.4702 -19.4255 -19.4061 -19.3971 -19.3718 -19.3572 -19.3475 -19.3458
-10.4719 -10.4620 -10.4478 -10.4129 -10.3583  -1.3525  -1.2734  -1.2208
 -1.2031  -1.1943  -1.1366  -1.0578  -1.0144  -0.9201  -0.8504  -0.8130
 -0.7435  -0.7014  -0.6890  -0.6838  -0.6608  -0.6464  -0.6399  -0.6239
 -0.6000  -0.5879  -0.5789  -0.5712  -0.5638  -0.5512  -0.5366  -0.5243
 -0.5035  -0.4925  -0.4631  -0.4606  -0.4581  -0.4350  -0.4218  -0.4184
 -0.4082  -0.4040  -0.3928  -0.3735

 Beta MOs
 -- Occupied --
-19.4600 -19.4065 -19.4061 -19.3971 -19.3716 -19.3570 -19.3475 -19.3458
-10.4723 -10.4619 -10.4478 -10.4129 -10.3583  -1.3268  -1.2734  -1.2194
 -1.2031  -1.1933  -1.1366  -1.0578  -0.9831  -0.9180  -0.8455  -0.8092
 -0.7433  -0.6948  -0.6877  -0.6821  -0.6475  -0.6442  -0.6265  -0.6206
 -0.5899  -0.5777  -0.5705  -0.5645  -0.5509  -0.5364  -0.5283  -0.5233
 -0.5012  -0.4906  -0.4628  -0.4582  -0.4534  -0.4349  -0.4188  -0.4102
 -0.4016  -0.3875  -0.3749

          Ground-State Mulliken Net Atomic Charges

     Atom                 Charge (a.u.)    Spin (a.u.)
  --------------------------------------------------------
      1 C                    -0.178700      -0.000620
      2 O                    -0.395352       0.007221
      3 C                     0.431730       0.003883
      4 O                    -0.405143       0.006597
      5 C                    -0.575481       0.003040
      6 C                    -0.044187      -0.005588
      7 O                    -0.098812      -0.000107
      8 O                    -0.313753      -0.000057
      9 C                    -0.315635      -0.000721
     10 O                    -0.403791       0.000293
     11 O                    -0.451718       0.000012
     12 H                     0.332255       0.000439
     13 H                     0.340826      -0.000986
     14 H                     0.228223      -0.001079
     15 H                     0.296047       0.001313
     16 H                     0.335245       0.001057
     17 H                     0.359266       0.000001
     18 H                     0.295622      -0.000102
     19 H                     0.343313       0.000032
     20 H                     0.346567      -0.000041
     21 O                     0.078807       0.305193
     22 O                    -0.205329       0.680221
  --------------------------------------------------------
  Sum of atomic charges =    -0.000000

                    Cartesian Multipole Moments
 -----------------------------------------------------------------
    Charge (ESU x 10^10)
                -0.0000
    Dipole Moment (Debye)
         X       0.2005      Y       1.7014      Z      -4.9021
       Tot       5.1929
    Quadrupole Moments (Debye-Ang)
        XX     -65.1047     XY       1.2244     YY     -88.0779
        XZ       0.9185     YZ     -13.4985     ZZ     -84.5332

             Standard Nuclear Orientation (Angstroms)
    I     Atom           X                Y                Z
 ----------------------------------------------------------------
    1      C       2.3511776409     0.0289440262    -0.6945353336
    2      O       1.1092619660    -0.5350181823    -0.7988777250
    3      C       2.6799824766     0.3034764829     0.7818966638
    4      O       1.9107701922    -0.0504312223     1.6426012912
    5      C       3.9628745399     1.0279991632     1.0657731743
    6      C       3.7951547523     2.5282739688     0.8399585310
    7      O       2.8791174992     2.9692998722     1.8415757093
    8      O       2.1956096385     4.1318074613     1.3743381791
    9      C       5.1348406484     3.2495951546     0.9675595709
   10      O       5.8963330706     2.8582081230    -0.1509005260
   11      O       4.9846129021     4.6464247776     1.0319744338
   12      H       2.5079357364     0.9033142434    -1.3241656053
   13      H       0.8067275421    -0.4663214119    -1.7131342178
   14      H       4.7530072531     0.6693912781     0.4084559076
   15      H       4.2478733531     0.8434419318     2.1008351934
   16      H       3.3698703044     2.7403255974    -0.1439104822
   17      H       1.3864524473     3.7504403306     1.0012457914
   18      H       5.6337511546     2.9667306199     1.8952457371
   19      H       6.8164578918     3.0950577540     0.0123610228
   20      H       4.4150526876     4.9303125955     0.3055430796
   21      O       3.3443645053    -0.9713116182    -1.1427842274
   22      O       4.2552564978    -0.4578796460    -1.9184239683
 ----------------------------------------------------------------

 Frequency:        13.14                  28.00                  44.83
 Force Cnst:      0.0009                 0.0037                 0.0149
 Red. Mass:       8.8299                 8.0873                12.5707
 IR Intens:        1.944                  1.865                  3.622
 Frequency:        60.24                  80.28                  90.94
 Force Cnst:      0.0130                 0.0302                 0.0281
 Red. Mass:       6.0682                 7.9417                 5.7583
 IR Intens:        0.326                  8.882                 13.517
 Frequency:       151.50                 197.10                 212.26
 Force Cnst:      0.0705                 0.1464                 0.2522
 Red. Mass:       5.2106                 6.3964                 9.5006
 IR Intens:        2.401                 10.957                  4.806
 Frequency:       271.26                 275.02                 286.13
 Force Cnst:      0.0567                 0.0906                 0.0792
 Red. Mass:       1.3072                 2.0334                 1.6409
 IR Intens:      165.851                 61.965                 52.907
 Frequency:       315.83                 325.61                 348.45
 Force Cnst:      0.1991                 0.1271                 0.1248
 Red. Mass:       3.3882                 2.0352                 1.7444
 IR Intens:       32.381                 75.758                233.752
 Frequency:       387.58                 394.81                 414.06
 Force Cnst:      0.1172                 0.3441                 0.3984
 Red. Mass:       1.3240                 3.7468                 3.9444
 IR Intens:      126.822                111.009                 40.466
 Frequency:       450.68                 481.81                 491.91
 Force Cnst:      0.4527                 0.5940                 0.8787
 Red. Mass:       3.7831                 4.3433                 6.1636
 IR Intens:       21.941                 67.759                 41.688
 Frequency:       539.12                 605.04                 663.23
 Force Cnst:      1.0150                 1.2917                 1.1144
 Red. Mass:       5.9271                 5.9887                 4.3000
 IR Intens:       16.887                 57.601                 49.485
 Frequency:       716.92                 853.50                 866.83
 Force Cnst:      1.0713                 1.5310                 1.3075
 Red. Mass:       3.5377                 3.5671                 2.9534
 IR Intens:       29.046                 28.852                 25.701
 Frequency:       914.46                1007.16                1023.17
 Force Cnst:      3.0877                 1.6545                 5.3879
 Red. Mass:       6.2670                 2.7684                 8.7352
 IR Intens:      160.045                 88.120                  6.933
 Frequency:      1079.92                1094.50                1142.69
 Force Cnst:      1.5252                 2.7381                 3.0610
 Red. Mass:       2.2198                 3.8795                 3.9788
 IR Intens:       82.689                 14.236                117.713
 Frequency:      1190.37                1198.61                1224.34
 Force Cnst:      1.8716                 1.8972                 1.2750
 Red. Mass:       2.2418                 2.2414                 1.4436
 IR Intens:      315.635                 37.313                 33.917
 Frequency:      1239.24                1245.32                1270.40
 Force Cnst:      1.0794                 1.2240                 1.7738
 Red. Mass:       1.1929                 1.3396                 1.8654
 IR Intens:      113.088                 92.547                 49.628
 Frequency:      1274.81                1296.21                1322.50
 Force Cnst:      4.3430                 2.4316                 1.2954
 Red. Mass:       4.5357                 2.4564                 1.2571
 IR Intens:       46.021                205.089                 24.952
 Frequency:      1333.63                1359.11                1391.32
 Force Cnst:      1.7069                 1.3574                 1.6530
 Red. Mass:       1.6288                 1.2472                 1.4493
 IR Intens:       56.536                  5.616                 20.085
 Frequency:      1416.27                1437.48                1452.60
 Force Cnst:      1.3338                 1.6040                 1.5822
 Red. Mass:       1.1287                 1.3175                 1.2727
 IR Intens:      105.883                 56.504                 25.056
 Frequency:      1467.65                1475.47                1797.78
 Force Cnst:      1.8046                 2.2110                22.4716
 Red. Mass:       1.4219                 1.7238                11.8008
 IR Intens:       67.160                 44.969                466.771
 Frequency:      3073.07                3092.82                3095.85
 Force Cnst:      6.0331                 6.0604                 6.0557
 Red. Mass:       1.0843                 1.0753                 1.0724
 IR Intens:        3.042                 17.691                 45.117
 Frequency:      3127.58                3153.45                3754.19
 Force Cnst:      6.2644                 6.4713                 8.8730
 Red. Mass:       1.0870                 1.1045                 1.0685
 IR Intens:        6.972                  2.316                117.518
 Frequency:      3796.28                3808.60                3821.88
 Force Cnst:      9.0526                 9.1140                 9.1799
 Red. Mass:       1.0661                 1.0664                 1.0667
 IR Intens:      115.572                205.563                142.040

 STANDARD THERMODYNAMIC QUANTITIES AT   298.15 K  AND     1.00 ATM

   This Molecule has  0 Imaginary Frequencies
   Zero point vibrational energy:      101.421 kcal/mol

   Atom    1 Element C  Has Mass   12.00000
   Atom    2 Element O  Has Mass   15.99491
   Atom    3 Element C  Has Mass   12.00000
   Atom    4 Element O  Has Mass   15.99491
   Atom    5 Element C  Has Mass   12.00000
   Atom    6 Element C  Has Mass   12.00000
   Atom    7 Element O  Has Mass   15.99491
   Atom    8 Element O  Has Mass   15.99491
   Atom    9 Element C  Has Mass   12.00000
   Atom   10 Element O  Has Mass   15.99491
   Atom   11 Element O  Has Mass   15.99491
   Atom   12 Element H  Has Mass    1.00783
   Atom   13 Element H  Has Mass    1.00783
   Atom   14 Element H  Has Mass    1.00783
   Atom   15 Element H  Has Mass    1.00783
   Atom   16 Element H  Has Mass    1.00783
   Atom   17 Element H  Has Mass    1.00783
   Atom   18 Element H  Has Mass    1.00783
   Atom   19 Element H  Has Mass    1.00783
   Atom   20 Element H  Has Mass    1.00783
   Atom   21 Element O  Has Mass   15.99491
   Atom   22 Element O  Has Mass   15.99491
   Molecular Mass:   197.029750 amu
   Principal axes and moments of inertia in amu*Bohr^2:
                             1           2           3
    Eigenvalues --     1620.27273  3648.39393  4614.39636
          X               0.36932     0.82865     0.42064
          Y               0.86231    -0.13682    -0.48755
          Z               0.34646    -0.54278     0.76508
   Rotational Symmetry Number is   1
   The Molecule is an Asymmetric Top
   Translational Enthalpy:        0.889 kcal/mol
   Rotational Enthalpy:           0.889 kcal/mol
   Vibrational Enthalpy:        108.940 kcal/mol
   gas constant (RT):             0.592 kcal/mol
   Translational Entropy:        41.739  cal/mol.K
   Rotational Entropy:           31.678  cal/mol.K
   Vibrational Entropy:          53.706  cal/mol.K

   Total Enthalpy:              111.310 kcal/mol
   Total Entropy:               127.124  cal/mol.K
 Total job time:  49862.77s(wall), 696488.51s(cpu)
        *  Thank you very much for using Q-Chem.  Have a nice day.  *
