 Q-Chem 5.4, Q-Chem, Inc., Pleasanton, CA (2021)
 Q-Chem 5.4.1 for Intel X86 EM64T Linux

User input:
--------------------------------------------------------------
$molecule
0 2
C         2.3360807405    0.0075060465   -0.7159605035
O         1.0684301971   -0.5091359388   -0.7942549514
C         2.6698142781    0.3204900862    0.7518154533
O         1.8811662033    0.0220350281    1.6245553179
C         3.9760886646    1.0208892161    1.0169970486
C         3.8016883311    2.5312374944    0.8387227465
O         2.8842082865    2.9361991445    1.8571700471
O         2.2301426592    4.1396757844    1.4290449237
C         5.1346537165    3.2661529261    0.9845419213
O         5.9071254050    2.8836522637   -0.1307430581
O         4.9699531206    4.6610397698    1.0625600277
H         2.5370477254    0.8509782600   -1.3824887742
H         0.7936545232   -0.4959184626   -1.7275302644
H         4.7511784376    0.6803349704    0.3254852171
H         4.2869111103    0.8066107793    2.0441503569
H         3.3689162054    2.7666286392   -0.1420180079
H         1.4144191852    3.7754971999    1.0348569618
H         5.6224130486    2.9817133609    1.9236985352
H         6.8099611126    3.2087964891    0.0223442155
H         4.4197563184    4.9309966553    0.3067554220
O         3.2861206742   -1.0539673640   -1.1269330302
O         4.2867547566   -0.5693310487   -1.8201374050
$end

$rem
BASIS = 6-311++G(2df,2p)
GUI = 2
JOB_TYPE = Optimization
METHOD = wB97M-V
SCF_ALGORITHM = DIIS_GDM
MAX_SCF_CYCLES = 400
GEOM_OPT_MAX_CYCLES = 150
SCF_CONVERGENCE = 7
THRESH = 12
Solvent_method = SMD
$end
--------------------------------------------------------------

   23    -797.5806998102      4.81e-08  Convergence criterion met
 Total energy in the final basis set =     -797.5733114957
   20    -797.5814847890      8.28e-08  Convergence criterion met
 Total energy in the final basis set =     -797.5740287505
   20    -797.5815116994      4.74e-08  Convergence criterion met
 Total energy in the final basis set =     -797.5740726580
   20    -797.5815374429      6.81e-08  Convergence criterion met
 Total energy in the final basis set =     -797.5740974763
   20    -797.5815948990      5.69e-08  Convergence criterion met
 Total energy in the final basis set =     -797.5741287447
   20    -797.5816375030      5.90e-08  Convergence criterion met
 Total energy in the final basis set =     -797.5741869795
   20    -797.5816458562      8.02e-08  Convergence criterion met
 Total energy in the final basis set =     -797.5741931408
   20    -797.5816505271      6.58e-08  Convergence criterion met
 Total energy in the final basis set =     -797.5741983681
   20    -797.5816555698      5.45e-08  Convergence criterion met
 Total energy in the final basis set =     -797.5742025205

             Standard Nuclear Orientation (Angstroms)
    I     Atom           X                Y                Z
 ----------------------------------------------------------------
    1      C       2.3511776409     0.0289440262    -0.6945353336
    2      O       1.1092619660    -0.5350181823    -0.7988777250
    3      C       2.6799824766     0.3034764829     0.7818966638
    4      O       1.9107701922    -0.0504312223     1.6426012912
    5      C       3.9628745399     1.0279991632     1.0657731743
    6      C       3.7951547523     2.5282739688     0.8399585310
    7      O       2.8791174992     2.9692998722     1.8415757093
    8      O       2.1956096385     4.1318074613     1.3743381791
    9      C       5.1348406484     3.2495951546     0.9675595709
   10      O       5.8963330706     2.8582081230    -0.1509005260
   11      O       4.9846129021     4.6464247776     1.0319744338
   12      H       2.5079357364     0.9033142434    -1.3241656053
   13      H       0.8067275421    -0.4663214119    -1.7131342178
   14      H       4.7530072531     0.6693912781     0.4084559076
   15      H       4.2478733531     0.8434419318     2.1008351934
   16      H       3.3698703044     2.7403255974    -0.1439104822
   17      H       1.3864524473     3.7504403306     1.0012457914
   18      H       5.6337511546     2.9667306199     1.8952457371
   19      H       6.8164578918     3.0950577540     0.0123610228
   20      H       4.4150526876     4.9303125955     0.3055430796
   21      O       3.3443645053    -0.9713116182    -1.1427842274
   22      O       4.2552564978    -0.4578796460    -1.9184239683
 ----------------------------------------------------------------

   20    -797.5816556304      7.60e-08  Convergence criterion met
 Total energy in the final basis set =     -797.5742031746
 Final energy is   -797.574203174553
 **  OPTIMIZATION CONVERGED  **

                    Orbital Energies (a.u.)
 --------------------------------------------------------------

 Alpha MOs
 -- Occupied --
-19.4702 -19.4254 -19.4061 -19.3971 -19.3718 -19.3572 -19.3475 -19.3458
-10.4719 -10.4620 -10.4478 -10.4129 -10.3583  -1.3529  -1.2734  -1.2208
 -1.2031  -1.1943  -1.1366  -1.0578  -1.0144  -0.9201  -0.8504  -0.8130
 -0.7435  -0.7014  -0.6890  -0.6838  -0.6609  -0.6464  -0.6399  -0.6239
 -0.6001  -0.5880  -0.5790  -0.5712  -0.5638  -0.5512  -0.5366  -0.5243
 -0.5035  -0.4925  -0.4631  -0.4606  -0.4581  -0.4350  -0.4217  -0.4184
 -0.4081  -0.4039  -0.3928  -0.3735

 Beta MOs
 -- Occupied --
-19.4600 -19.4064 -19.4061 -19.3971 -19.3716 -19.3570 -19.3475 -19.3458
-10.4723 -10.4619 -10.4478 -10.4129 -10.3583  -1.3272  -1.2734  -1.2194
 -1.2031  -1.1933  -1.1366  -1.0578  -0.9830  -0.9180  -0.8455  -0.8092
 -0.7433  -0.6949  -0.6877  -0.6821  -0.6475  -0.6442  -0.6265  -0.6206
 -0.5899  -0.5777  -0.5706  -0.5646  -0.5509  -0.5364  -0.5285  -0.5233
 -0.5012  -0.4906  -0.4628  -0.4582  -0.4534  -0.4349  -0.4188  -0.4102
 -0.4016  -0.3875  -0.3749

          Ground-State Mulliken Net Atomic Charges

     Atom                 Charge (a.u.)    Spin (a.u.)
  --------------------------------------------------------
      1 C                    -0.178784      -0.000613
      2 O                    -0.395404       0.007214
      3 C                     0.431658       0.003885
      4 O                    -0.405148       0.006607
      5 C                    -0.575357       0.003031
      6 C                    -0.044192      -0.005583
      7 O                    -0.098816      -0.000107
      8 O                    -0.313756      -0.000057
      9 C                    -0.315612      -0.000723
     10 O                    -0.403795       0.000292
     11 O                    -0.451718       0.000012
     12 H                     0.332266       0.000449
     13 H                     0.340819      -0.000987
     14 H                     0.228232      -0.001079
     15 H                     0.296076       0.001316
     16 H                     0.335240       0.001056
     17 H                     0.359265       0.000001
     18 H                     0.295622      -0.000102
     19 H                     0.343312       0.000032
     20 H                     0.346567      -0.000041
     21 O                     0.079063       0.305456
     22 O                    -0.205538       0.679942
  --------------------------------------------------------
  Sum of atomic charges =    -0.000000

                    Cartesian Multipole Moments
 -----------------------------------------------------------------
    Charge (ESU x 10^10)
                -0.0000
    Dipole Moment (Debye)
         X       0.1998      Y       1.7005      Z      -4.9026
       Tot       5.1930
    Quadrupole Moments (Debye-Ang)
        XX     -65.1106     XY       1.2209     YY     -88.0764
        XZ       0.9186     YZ     -13.4971     ZZ     -84.5311

 Total job time:  3754.87s(wall), 52737.79s(cpu)
        *  Thank you very much for using Q-Chem.  Have a nice day.  *
