 Q-Chem 5.4, Q-Chem, Inc., Pleasanton, CA (2021)
 Q-Chem 5.4.2 for Intel X86 EM64T Linux

User input:
--------------------------------------------------------------
$molecule
0 2
C        -0.0112338406   -0.2044571578    0.7943742310
C        -0.8709735290   -0.9833205214    1.7745707659
C        -1.4369571481   -2.2370319746    1.0856013841
C        -2.0180241893   -1.9197745827   -0.2687287740
C        -1.8740873604   -0.7144528704   -0.8014294379
C        -1.1526321212    0.3755764296   -0.0469267503
C        -0.7125435276    1.5399599338   -0.9180948532
H         0.5063594358    0.6107965497    1.3039443737
H        -0.3817733902   -1.2311748197    2.7129706341
H        -2.2377737209   -2.6211108190    1.7495963791
H        -2.5432232216   -2.7154892667   -0.7806317156
H        -2.2902891792   -0.4716493781   -1.7721848746
H        -1.5569794046    1.9509285293   -1.4719372775
O         0.3163577727    1.1021630864   -1.8015854543
H        -0.2870042880    2.3170427906   -0.2868202758
H        -0.0882818083    0.6407612684   -2.5447374248
O         0.8881125400   -1.0441033409    0.1120683293
H         1.1597752464   -0.5683319492   -0.6858020709
O        -1.9370901837   -0.0775912384    2.0694278129
O        -1.9914976436    0.9046110604    0.9865002998
O        -0.5408477387   -3.2811057300    1.0637294989
$end

$rem
BASIS = 6-311++G(2df,2p)
GUI = 2
JOB_TYPE = Frequency
METHOD = wB97M-V
SOLVENT_METHOD = SMD
SCF_ALGORITHM = DIIS_GDM
MAX_SCF_CYCLES = 400
SCF_CONVERGENCE = 7
THRESH = 12
$end
--------------------------------------------------------------

   28    -648.1154630831      7.97e-08  Convergence criterion met
 Total energy in the final basis set =     -648.1108087542
   16    -648.1154650606      6.08e-08  Convergence criterion met
 Total energy in the final basis set =     -648.1108077203
   21    -648.1154591427      6.52e-08  Convergence criterion met
 Total energy in the final basis set =     -648.1108076689
   21    -648.1154596306      5.66e-08  Convergence criterion met
 Total energy in the final basis set =     -648.1108076689
   21    -648.1154645257      4.57e-08  Convergence criterion met
 Total energy in the final basis set =     -648.1108076945
   21    -648.1154603900      4.84e-08  Convergence criterion met
 Total energy in the final basis set =     -648.1108078883
   21    -648.1154639835      4.74e-08  Convergence criterion met
 Total energy in the final basis set =     -648.1108077379
   21    -648.1154621832      4.91e-08  Convergence criterion met
 Total energy in the final basis set =     -648.1108081399
   21    -648.1154625632      6.38e-08  Convergence criterion met
 Total energy in the final basis set =     -648.1108083817
   21    -648.1154541458      4.52e-08  Convergence criterion met
 Total energy in the final basis set =     -648.1108085490
   21    -648.1154714810      6.58e-08  Convergence criterion met
 Total energy in the final basis set =     -648.1108084433
   20    -648.1154729266      8.56e-08  Convergence criterion met
 Total energy in the final basis set =     -648.1108083715
   21    -648.1154524826      6.08e-08  Convergence criterion met
 Total energy in the final basis set =     -648.1108084154
   21    -648.1154632704      4.09e-08  Convergence criterion met
 Total energy in the final basis set =     -648.1108086803
   20    -648.1154627269      8.03e-08  Convergence criterion met
 Total energy in the final basis set =     -648.1108086686

                    Orbital Energies (a.u.)
 --------------------------------------------------------------

 Alpha MOs
 -- Occupied --
-19.4080 -19.4071 -19.3938 -19.3494 -19.3487 -10.4159 -10.4129 -10.4119
-10.4084 -10.3958 -10.3551 -10.3510  -1.2788  -1.1808  -1.1716  -1.1625
 -1.0750  -0.9661  -0.8897  -0.8511  -0.8066  -0.7519  -0.7204  -0.6901
 -0.6640  -0.6427  -0.6146  -0.6088  -0.5868  -0.5749  -0.5657  -0.5524
 -0.5403  -0.5351  -0.5293  -0.5024  -0.4967  -0.4742  -0.4644  -0.4431
 -0.4385  -0.4132  -0.3967  -0.3858  -0.3696  -0.3640

 Beta MOs
 -- Occupied --
-19.4080 -19.4071 -19.3713 -19.3494 -19.3483 -10.4159 -10.4132 -10.4113
-10.4084 -10.3958 -10.3547 -10.3510  -1.2787  -1.1774  -1.1639  -1.1252
 -1.0742  -0.9623  -0.8886  -0.8475  -0.7991  -0.7513  -0.7171  -0.6884
 -0.6578  -0.6387  -0.6121  -0.5988  -0.5828  -0.5644  -0.5589  -0.5378
 -0.5348  -0.5301  -0.5271  -0.4996  -0.4814  -0.4687  -0.4572  -0.4380
 -0.4136  -0.3967  -0.3820  -0.3675  -0.3630

          Ground-State Mulliken Net Atomic Charges

     Atom                 Charge (a.u.)    Spin (a.u.)
  --------------------------------------------------------
      1 C                    -0.154916       0.010804
      2 C                    -0.062239      -0.001333
      3 C                    -0.474723       0.042287
      4 C                    -0.081026      -0.011090
      5 C                    -0.412593       0.008036
      6 C                     0.125436      -0.008385
      7 C                    -0.393121       0.001587
      8 H                     0.323737       0.003105
      9 H                     0.289716      -0.001664
     10 H                     0.291028       0.092243
     11 H                     0.303873      -0.001252
     12 H                     0.312977       0.002421
     13 H                     0.252471       0.000060
     14 O                    -0.378607       0.000059
     15 H                     0.243468      -0.000006
     16 H                     0.328292       0.000025
     17 O                    -0.403811       0.005597
     18 H                     0.342817       0.000689
     19 O                    -0.112157       0.001141
     20 O                    -0.132398      -0.000500
     21 O                    -0.208225       0.856176
  --------------------------------------------------------
  Sum of atomic charges =     0.000000

                    Cartesian Multipole Moments
 -----------------------------------------------------------------
    Charge (ESU x 10^10)
                 0.0000
    Dipole Moment (Debye)
         X      -1.4533      Y       1.7669      Z      -3.3891
       Tot       4.0890
    Quadrupole Moments (Debye-Ang)
        XX     -73.2691     XY       8.0168     YY     -79.0807
        XZ       7.8460     YZ      -1.4216     ZZ     -62.4865

             Standard Nuclear Orientation (Angstroms)
    I     Atom           X                Y                Z
 ----------------------------------------------------------------
    1      C      -0.0112338406    -0.2044571578     0.7943742310
    2      C      -0.8709735290    -0.9833205214     1.7745707659
    3      C      -1.4369571481    -2.2370319746     1.0856013841
    4      C      -2.0180241893    -1.9197745827    -0.2687287740
    5      C      -1.8740873604    -0.7144528704    -0.8014294379
    6      C      -1.1526321212     0.3755764296    -0.0469267503
    7      C      -0.7125435276     1.5399599338    -0.9180948532
    8      H       0.5063594358     0.6107965497     1.3039443737
    9      H      -0.3817733902    -1.2311748197     2.7129706341
   10      H      -2.2377737209    -2.6211108190     1.7495963791
   11      H      -2.5432232216    -2.7154892667    -0.7806317156
   12      H      -2.2902891792    -0.4716493781    -1.7721848746
   13      H      -1.5569794046     1.9509285293    -1.4719372775
   14      O       0.3163577727     1.1021630864    -1.8015854543
   15      H      -0.2870042880     2.3170427906    -0.2868202758
   16      H      -0.0882818083     0.6407612684    -2.5447374248
   17      O       0.8881125400    -1.0441033409     0.1120683293
   18      H       1.1597752464    -0.5683319492    -0.6858020709
   19      O      -1.9370901837    -0.0775912384     2.0694278129
   20      O      -1.9914976436     0.9046110604     0.9865002998
   21      O      -0.5408477387    -3.2811057300     1.0637294989
 ----------------------------------------------------------------

 Frequency:        96.99                 102.45                 159.15
 Force Cnst:      0.0333                 0.0289                 0.1057
 Red. Mass:       6.0116                 4.6694                 7.0813
 IR Intens:        5.494                  1.869                 12.297
 Frequency:       192.60                 198.05                 244.12
 Force Cnst:      0.0980                 0.2161                 0.0658
 Red. Mass:       4.4863                 9.3526                 1.8745
 IR Intens:       22.425                  1.404                 82.632
 Frequency:       285.78                 313.27                 328.27
 Force Cnst:      0.0743                 0.2264                 0.1585
 Red. Mass:       1.5448                 3.9153                 2.4959
 IR Intens:      176.852                 15.085                 90.401
 Frequency:       369.67                 379.34                 399.06
 Force Cnst:      0.1633                 0.2199                 0.4027
 Red. Mass:       2.0281                 2.5936                 4.2920
 IR Intens:       99.044                 50.740                 17.703
 Frequency:       453.89                 511.53                 552.38
 Force Cnst:      0.5101                 0.6770                 1.0040
 Red. Mass:       4.2022                 4.3911                 5.5847
 IR Intens:        9.690                 14.869                  1.939
 Frequency:       613.78                 656.08                 699.44
 Force Cnst:      1.3644                 1.6661                 0.9111
 Red. Mass:       6.1470                 6.5694                 3.1609
 IR Intens:        6.765                  4.675                 37.399
 Frequency:       754.77                 789.26                 839.30
 Force Cnst:      0.9662                 1.1970                 1.5234
 Red. Mass:       2.8786                 3.2615                 3.6704
 IR Intens:       22.985                 35.722                 21.576
 Frequency:       893.65                 924.01                 926.26
 Force Cnst:      3.9525                 1.9265                 0.8777
 Red. Mass:       8.4001                 3.8297                 1.7364
 IR Intens:       35.845                 18.424                 14.800
 Frequency:       991.52                1015.84                1031.79
 Force Cnst:      0.9281                 0.9122                 2.4495
 Red. Mass:       1.6022                 1.5003                 3.9052
 IR Intens:       15.599                  2.966                 43.810
 Frequency:      1047.13                1048.39                1060.74
 Force Cnst:      2.1649                 0.9212                 2.3456
 Red. Mass:       3.3511                 1.4225                 3.5382
 IR Intens:      248.704                 16.201                 84.991
 Frequency:      1078.24                1110.21                1145.07
 Force Cnst:      2.9717                 1.3146                 1.1657
 Red. Mass:       4.3384                 1.8102                 1.5090
 IR Intens:       32.649                 14.338                 20.387
 Frequency:      1182.77                1192.66                1215.16
 Force Cnst:      1.0239                 1.3100                 1.4318
 Red. Mass:       1.2423                 1.5630                 1.6458
 IR Intens:       23.109                  3.705                 34.955
 Frequency:      1252.51                1272.71                1287.41
 Force Cnst:      1.6792                 2.1983                 1.5011
 Red. Mass:       1.8168                 2.3035                 1.5372
 IR Intens:       47.126                 86.727                  1.020
 Frequency:      1311.31                1342.60                1370.55
 Force Cnst:      1.5018                 1.8395                 2.0979
 Red. Mass:       1.4824                 1.7320                 1.8956
 IR Intens:       24.390                 28.337                104.557
 Frequency:      1384.94                1403.39                1417.03
 Force Cnst:      1.4327                 1.5566                 2.1167
 Red. Mass:       1.2678                 1.3415                 1.7891
 IR Intens:       13.776                 18.538                 10.600
 Frequency:      1442.63                1486.94                1729.80
 Force Cnst:      2.5478                 1.4137                13.2312
 Red. Mass:       2.0778                 1.0852                 7.5052
 IR Intens:       34.281                  5.198                  3.583
 Frequency:      2894.91                3072.55                3075.31
 Force Cnst:      5.3040                 6.0353                 5.9138
 Red. Mass:       1.0742                 1.0851                 1.0613
 IR Intens:       47.128                 34.304                 58.438
 Frequency:      3138.93                3140.46                3176.92
 Force Cnst:      6.4244                 6.3259                 6.4731
 Red. Mass:       1.1067                 1.0886                 1.0886
 IR Intens:       23.606                 12.684                  4.247
 Frequency:      3204.64                3745.76                3823.14
 Force Cnst:      6.6438                 8.8153                 9.1865
 Red. Mass:       1.0980                 1.0664                 1.0667
 IR Intens:       11.371                285.482                128.529

 STANDARD THERMODYNAMIC QUANTITIES AT   298.15 K  AND     1.00 ATM

   This Molecule has  0 Imaginary Frequencies
   Zero point vibrational energy:      101.181 kcal/mol

   Atom    1 Element C  Has Mass   12.00000
   Atom    2 Element C  Has Mass   12.00000
   Atom    3 Element C  Has Mass   12.00000
   Atom    4 Element C  Has Mass   12.00000
   Atom    5 Element C  Has Mass   12.00000
   Atom    6 Element C  Has Mass   12.00000
   Atom    7 Element C  Has Mass   12.00000
   Atom    8 Element H  Has Mass    1.00783
   Atom    9 Element H  Has Mass    1.00783
   Atom   10 Element H  Has Mass    1.00783
   Atom   11 Element H  Has Mass    1.00783
   Atom   12 Element H  Has Mass    1.00783
   Atom   13 Element H  Has Mass    1.00783
   Atom   14 Element O  Has Mass   15.99491
   Atom   15 Element H  Has Mass    1.00783
   Atom   16 Element H  Has Mass    1.00783
   Atom   17 Element O  Has Mass   15.99491
   Atom   18 Element H  Has Mass    1.00783
   Atom   19 Element O  Has Mass   15.99491
   Atom   20 Element O  Has Mass   15.99491
   Atom   21 Element O  Has Mass   15.99491
   Molecular Mass:   173.045020 amu
   Principal axes and moments of inertia in amu*Bohr^2:
                             1           2           3
    Eigenvalues --     1178.45162  1971.71614  2291.05505
          X               0.17139     0.65780     0.73344
          Y               0.82372    -0.50407     0.25960
          Z              -0.54047    -0.55966     0.62824
   Rotational Symmetry Number is   1
   The Molecule is an Asymmetric Top
   Translational Enthalpy:        0.889 kcal/mol
   Rotational Enthalpy:           0.889 kcal/mol
   Vibrational Enthalpy:        106.084 kcal/mol
   gas constant (RT):             0.592 kcal/mol
   Translational Entropy:        41.352  cal/mol.K
   Rotational Entropy:           30.055  cal/mol.K
   Vibrational Entropy:          27.942  cal/mol.K

   Total Enthalpy:              108.454 kcal/mol
   Total Entropy:                99.349  cal/mol.K
 Total job time:  49712.49s(wall), 634905.43s(cpu)
        *  Thank you very much for using Q-Chem.  Have a nice day.  *
