 Q-Chem 5.4, Q-Chem, Inc., Pleasanton, CA (2021)
 Q-Chem 5.4.1 for Intel X86 EM64T Linux

User input:
--------------------------------------------------------------
$molecule
0 2
C        -0.0168774468   -0.2000662033    0.7952676356
C        -0.8765477918   -0.9814305599    1.7778810632
C        -1.4290208569   -2.2410392202    1.0839354776
C        -2.0298138614   -1.9167352067   -0.2652010581
C        -1.8888647978   -0.7046209530   -0.7991441508
C        -1.1633100132    0.3850796340   -0.0410529522
C        -0.6984047677    1.5387915586   -0.9197392806
H         0.5066048371    0.6184287764    1.3063390603
H        -0.3877354012   -1.2276019448    2.7226184104
H        -2.2087292636   -2.6622993208    1.7525757155
H        -2.5596534547   -2.7151336639   -0.7782906620
H        -2.3189431155   -0.4573136827   -1.7681702779
H        -1.5275215112    1.9522952402   -1.5037425362
O         0.3512924334    1.0726493257   -1.7687672605
H        -0.2776833678    2.3255064002   -0.2891407638
H        -0.0576030347    0.5757821737   -2.4971458525
O         0.8715549499   -1.0366951859    0.0936023726
H         1.0938136824   -0.5358295980   -0.7162384307
O        -1.9527642881   -0.0818975793    2.0743685705
O        -2.0033147961    0.9171854328    0.9923679806
O        -0.4870854345   -3.2528094235    1.0215817389
$end

$rem
BASIS = 6-311++G(2df,2p)
GUI = 2
JOB_TYPE = Optimization
METHOD = wB97M-V
SCF_ALGORITHM = DIIS_GDM
MAX_SCF_CYCLES = 400
GEOM_OPT_MAX_CYCLES = 150
SCF_CONVERGENCE = 7
THRESH = 12
Solvent_method = SMD
$end
--------------------------------------------------------------

   28    -648.1145880035      8.33e-08  Convergence criterion met
 Total energy in the final basis set =     -648.1100892903
   22    -648.1153398231      8.66e-08  Convergence criterion met
 Total energy in the final basis set =     -648.1107510791
   22    -648.1154095233      7.75e-08  Convergence criterion met
 Total energy in the final basis set =     -648.1107971595
   22    -648.1154396434      6.85e-08  Convergence criterion met
 Total energy in the final basis set =     -648.1108063893
   21    -648.1154569476      8.53e-08  Convergence criterion met
 Total energy in the final basis set =     -648.1108083460

             Standard Nuclear Orientation (Angstroms)
    I     Atom           X                Y                Z
 ----------------------------------------------------------------
    1      C      -0.0112338406    -0.2044571578     0.7943742310
    2      C      -0.8709735290    -0.9833205214     1.7745707659
    3      C      -1.4369571481    -2.2370319746     1.0856013841
    4      C      -2.0180241893    -1.9197745827    -0.2687287740
    5      C      -1.8740873604    -0.7144528704    -0.8014294379
    6      C      -1.1526321212     0.3755764296    -0.0469267503
    7      C      -0.7125435276     1.5399599338    -0.9180948532
    8      H       0.5063594358     0.6107965497     1.3039443737
    9      H      -0.3817733902    -1.2311748197     2.7129706341
   10      H      -2.2377737209    -2.6211108190     1.7495963791
   11      H      -2.5432232216    -2.7154892667    -0.7806317156
   12      H      -2.2902891792    -0.4716493781    -1.7721848746
   13      H      -1.5569794046     1.9509285293    -1.4719372775
   14      O       0.3163577727     1.1021630864    -1.8015854543
   15      H      -0.2870042880     2.3170427906    -0.2868202758
   16      H      -0.0882818083     0.6407612684    -2.5447374248
   17      O       0.8881125400    -1.0441033409     0.1120683293
   18      H       1.1597752464    -0.5683319492    -0.6858020709
   19      O      -1.9370901837    -0.0775912384     2.0694278129
   20      O      -1.9914976436     0.9046110604     0.9865002998
   21      O      -0.5408477387    -3.2811057300     1.0637294989
 ----------------------------------------------------------------

   21    -648.1154630835      5.95e-08  Convergence criterion met
 Total energy in the final basis set =     -648.1108087546
 Final energy is   -648.110808754559
 **  OPTIMIZATION CONVERGED  **

                    Orbital Energies (a.u.)
 --------------------------------------------------------------

 Alpha MOs
 -- Occupied --
-19.4080 -19.4071 -19.3938 -19.3494 -19.3487 -10.4159 -10.4129 -10.4119
-10.4085 -10.3958 -10.3551 -10.3510  -1.2788  -1.1808  -1.1716  -1.1625
 -1.0750  -0.9661  -0.8897  -0.8511  -0.8066  -0.7519  -0.7204  -0.6901
 -0.6640  -0.6427  -0.6146  -0.6088  -0.5868  -0.5749  -0.5657  -0.5524
 -0.5403  -0.5351  -0.5293  -0.5024  -0.4967  -0.4741  -0.4644  -0.4431
 -0.4385  -0.4132  -0.3967  -0.3858  -0.3696  -0.3640

 Beta MOs
 -- Occupied --
-19.4080 -19.4071 -19.3713 -19.3494 -19.3483 -10.4159 -10.4132 -10.4113
-10.4084 -10.3958 -10.3547 -10.3510  -1.2787  -1.1774  -1.1639  -1.1252
 -1.0741  -0.9623  -0.8886  -0.8475  -0.7991  -0.7513  -0.7171  -0.6884
 -0.6578  -0.6387  -0.6121  -0.5988  -0.5828  -0.5644  -0.5589  -0.5378
 -0.5348  -0.5301  -0.5271  -0.4996  -0.4814  -0.4687  -0.4572  -0.4380
 -0.4135  -0.3967  -0.3819  -0.3676  -0.3630

          Ground-State Mulliken Net Atomic Charges

     Atom                 Charge (a.u.)    Spin (a.u.)
  --------------------------------------------------------
      1 C                    -0.154900       0.010799
      2 C                    -0.062040      -0.001353
      3 C                    -0.475071       0.042437
      4 C                    -0.080768      -0.011207
      5 C                    -0.412557       0.008085
      6 C                     0.125359      -0.008393
      7 C                    -0.393130       0.001591
      8 H                     0.323741       0.003103
      9 H                     0.289743      -0.001664
     10 H                     0.291001       0.092278
     11 H                     0.303867      -0.001249
     12 H                     0.312982       0.002417
     13 H                     0.252473       0.000059
     14 O                    -0.378604       0.000060
     15 H                     0.243469      -0.000006
     16 H                     0.328291       0.000025
     17 O                    -0.403814       0.005589
     18 H                     0.342808       0.000689
     19 O                    -0.112180       0.001140
     20 O                    -0.132388      -0.000502
     21 O                    -0.208282       0.856100
  --------------------------------------------------------
  Sum of atomic charges =     0.000000

                    Cartesian Multipole Moments
 -----------------------------------------------------------------
    Charge (ESU x 10^10)
                 0.0000
    Dipole Moment (Debye)
         X      -1.4536      Y       1.7675      Z      -3.3912
       Tot       4.0911
    Quadrupole Moments (Debye-Ang)
        XX     -73.2676     XY       8.0168     YY     -79.0837
        XZ       7.8476     YZ      -1.4152     ZZ     -62.4902

 Total job time:  2261.49s(wall), 32659.08s(cpu)
        *  Thank you very much for using Q-Chem.  Have a nice day.  *
