 Q-Chem 5.4, Q-Chem, Inc., Pleasanton, CA (2021)
 Q-Chem 5.4.1 for Intel X86 EM64T Linux

User input:
--------------------------------------------------------------
$molecule
0 2
C    1.0505187    0.0607743    0.3443880
O    0.7716834   -1.3096786    0.5288867
C    2.5783461    0.3329543    0.3049672
O    3.1064437   -0.4340924   -0.7399411
O    2.7759734    1.6713104    0.1805999
C    3.1891171    0.0427280    1.6863497
C    4.4732480   -0.0269614    2.0232628
C    5.6386715    0.1603453    1.1344953
O    6.7701977    0.2367645    1.8336242
O    5.6226180    0.2397308   -0.0809897
H    0.6146680    0.6757433    1.1292332
H    0.6467938    0.3546307   -0.6213279
H    0.8108601   -1.5157689    1.4692089
H    2.4558458   -0.0666340    2.4757547
H    4.7220325   -0.2275540    3.0562382
H    7.5112515    0.3661001    1.2200749
H    4.0714626   -0.2873870   -0.7385293
$end

$rem
BASIS = 6-311++G(2df,2p)
GUI = 2
JOB_TYPE = Frequency
METHOD = wB97M-V
SOLVENT_METHOD = SMD
SCF_ALGORITHM = DIIS_GDM
MAX_SCF_CYCLES = 400
SCF_CONVERGENCE = 7
THRESH = 12
$end
--------------------------------------------------------------

   26    -570.8371310010      4.95e-08  Convergence criterion met
 Total energy in the final basis set =     -570.8292090062
   24    -570.8371278385      7.70e-08  Convergence criterion met
 Total energy in the final basis set =     -570.8292084283
   24    -570.8371326909      8.03e-08  Convergence criterion met
 Total energy in the final basis set =     -570.8292080883
   24    -570.8371275786      7.42e-08  Convergence criterion met
 Total energy in the final basis set =     -570.8292079637
   24    -570.8371326194      7.43e-08  Convergence criterion met
 Total energy in the final basis set =     -570.8292077896
   24    -570.8371298713      7.59e-08  Convergence criterion met
 Total energy in the final basis set =     -570.8292078506
   24    -570.8371297576      7.31e-08  Convergence criterion met
 Total energy in the final basis set =     -570.8292077769
   24    -570.8371320030      9.23e-08  Convergence criterion met
 Total energy in the final basis set =     -570.8292086026
   24    -570.8371306439      6.99e-08  Convergence criterion met
 Total energy in the final basis set =     -570.8292086204
   24    -570.8371302493      7.02e-08  Convergence criterion met
 Total energy in the final basis set =     -570.8292081309
   24    -570.8371301635      6.84e-08  Convergence criterion met
 Total energy in the final basis set =     -570.8292082930
   24    -570.8371307334      6.87e-08  Convergence criterion met
 Total energy in the final basis set =     -570.8292089924
   24    -570.8371311462      7.20e-08  Convergence criterion met
 Total energy in the final basis set =     -570.8292088972
   24    -570.8371303670      6.87e-08  Convergence criterion met
 Total energy in the final basis set =     -570.8292089101
   24    -570.8371314670      7.12e-08  Convergence criterion met
 Total energy in the final basis set =     -570.8292089338

                    Orbital Energies (a.u.)
 --------------------------------------------------------------

 Alpha MOs
 -- Occupied --
-19.3968 -19.3922 -19.3493 -19.3466 -19.3400 -10.5057 -10.4701 -10.4014
-10.3912 -10.3746  -1.2602  -1.2197  -1.1696  -1.1677  -1.1367  -0.9448
 -0.8642  -0.8132  -0.7427  -0.6907  -0.6668  -0.6507  -0.6354  -0.6122
 -0.5890  -0.5804  -0.5670  -0.5538  -0.5365  -0.5245  -0.5076  -0.4858
 -0.4525  -0.4469  -0.4419  -0.4261  -0.4097  -0.3916  -0.3820

 Beta MOs
 -- Occupied --
-19.3922 -19.3753 -19.3488 -19.3464 -19.3401 -10.5057 -10.4704 -10.4000
-10.3895 -10.3738  -1.2600  -1.2029  -1.1690  -1.1636  -1.1101  -0.9402
 -0.8556  -0.8101  -0.7365  -0.6884  -0.6609  -0.6438  -0.6331  -0.6005
 -0.5872  -0.5743  -0.5606  -0.5505  -0.5230  -0.5136  -0.5034  -0.4552
 -0.4511  -0.4283  -0.4228  -0.4094  -0.4060  -0.3787

          Ground-State Mulliken Net Atomic Charges

     Atom                 Charge (a.u.)    Spin (a.u.)
  --------------------------------------------------------
      1 C                    -0.263228       0.033132
      2 O                    -0.392354       0.015166
      3 C                    -0.328633       0.027822
      4 O                    -0.434600      -0.000514
      5 O                    -0.202560       0.821362
      6 C                     0.131993       0.040555
      7 C                     0.044676       0.055447
      8 C                     0.098927      -0.002471
      9 O                    -0.304641       0.002121
     10 O                    -0.494162       0.005864
     11 H                     0.254879      -0.002304
     12 H                     0.229987      -0.000071
     13 H                     0.332197      -0.000369
     14 H                     0.301661       0.001847
     15 H                     0.300207       0.002020
     16 H                     0.363239      -0.000191
     17 H                     0.362411       0.000584
  --------------------------------------------------------
  Sum of atomic charges =    -0.000000

                    Cartesian Multipole Moments
 -----------------------------------------------------------------
    Charge (ESU x 10^10)
                -0.0000
    Dipole Moment (Debye)
         X       1.4564      Y      -0.1428      Z       6.4756
       Tot       6.6388
    Quadrupole Moments (Debye-Ang)
        XX     -33.3328     XY      -3.0760     YY     -66.0632
        XZ      18.7268     YZ      -3.8375     ZZ     -49.6035

             Standard Nuclear Orientation (Angstroms)
    I     Atom           X                Y                Z
 ----------------------------------------------------------------
    1      C       1.0505187000     0.0607743000     0.3443880000
    2      O       0.7716834000    -1.3096786000     0.5288867000
    3      C       2.5783461000     0.3329543000     0.3049672000
    4      O       3.1064437000    -0.4340924000    -0.7399411000
    5      O       2.7759734000     1.6713104000     0.1805999000
    6      C       3.1891171000     0.0427280000     1.6863497000
    7      C       4.4732480000    -0.0269614000     2.0232628000
    8      C       5.6386715000     0.1603453000     1.1344953000
    9      O       6.7701977000     0.2367645000     1.8336242000
   10      O       5.6226180000     0.2397308000    -0.0809897000
   11      H       0.6146680000     0.6757433000     1.1292332000
   12      H       0.6467938000     0.3546307000    -0.6213279000
   13      H       0.8108601000    -1.5157689000     1.4692089000
   14      H       2.4558458000    -0.0666340000     2.4757547000
   15      H       4.7220325000    -0.2275540000     3.0562382000
   16      H       7.5112515000     0.3661001000     1.2200749000
   17      H       4.0714626000    -0.2873870000    -0.7385293000
 ----------------------------------------------------------------

 Frequency:        37.38                  59.76                 109.26
 Force Cnst:      0.0051                 0.0236                 0.0289
 Red. Mass:       6.2541                11.2393                 4.1078
 IR Intens:        0.216                  3.379                 16.572
 Frequency:       166.69                 190.00                 226.29
 Force Cnst:      0.0880                 0.2219                 0.1146
 Red. Mass:       5.3784                10.4318                 3.7979
 IR Intens:        5.101                  3.936                  8.696
 Frequency:       266.81                 312.73                 354.47
 Force Cnst:      0.2902                 0.1124                 0.2903
 Red. Mass:       6.9179                 1.9501                 3.9216
 IR Intens:        1.863                181.516                  9.636
 Frequency:       376.97                 450.11                 489.95
 Force Cnst:      0.1315                 0.4520                 0.6543
 Red. Mass:       1.5704                 3.7868                 4.6262
 IR Intens:       81.186                 12.175                 10.611
 Frequency:       540.53                 598.42                 602.85
 Force Cnst:      0.5152                 0.2906                 0.4027
 Red. Mass:       2.9927                 1.3772                 1.8808
 IR Intens:      131.185                167.589                 37.802
 Frequency:       632.49                 703.60                 731.88
 Force Cnst:      0.4122                 0.6672                 1.5299
 Red. Mass:       1.7486                 2.2873                 4.8477
 IR Intens:      181.876                 44.516                 53.665
 Frequency:       794.44                 846.55                 884.92
 Force Cnst:      1.7913                 1.2670                 1.9540
 Red. Mass:       4.8173                 3.0008                 4.2352
 IR Intens:       12.251                107.817                160.924
 Frequency:       937.85                 959.98                1017.64
 Force Cnst:      2.1215                 1.2720                 1.6459
 Red. Mass:       4.0937                 2.3426                 2.6975
 IR Intens:        5.424                 11.717                 25.031
 Frequency:      1031.28                1152.61                1193.01
 Force Cnst:      0.8430                 2.0579                 1.2285
 Red. Mass:       1.3453                 2.6291                 1.4650
 IR Intens:       13.738                855.899                218.301
 Frequency:      1248.37                1272.79                1311.88
 Force Cnst:      1.0713                 2.9109                 2.4755
 Red. Mass:       1.1667                 3.0497                 2.4413
 IR Intens:       63.512                163.588                206.930
 Frequency:      1333.56                1378.06                1387.97
 Force Cnst:      1.6199                 1.4181                 1.6054
 Red. Mass:       1.5460                 1.2675                 1.4144
 IR Intens:       78.338                 84.165                 30.251
 Frequency:      1404.88                1428.35                1487.04
 Force Cnst:      1.3994                 1.9750                 1.5586
 Red. Mass:       1.2034                 1.6430                 1.1963
 IR Intens:      132.264                135.451                 10.354
 Frequency:      1715.89                1720.63                3091.83
 Force Cnst:     16.2356                13.3537                 5.9587
 Red. Mass:       9.3592                 7.6556                 1.0580
 IR Intens:      359.246                354.464                 36.975
 Frequency:      3157.31                3190.08                3214.13
 Force Cnst:      6.5262                 6.5277                 6.6627
 Red. Mass:       1.1112                 1.0887                 1.0946
 IR Intens:       19.134                  1.259                  0.451
 Frequency:      3545.38                3742.62                3825.28
 Force Cnst:      7.9037                 8.7876                 9.1994
 Red. Mass:       1.0672                 1.0648                 1.0671
 IR Intens:      708.641                251.916                136.612

 STANDARD THERMODYNAMIC QUANTITIES AT   298.15 K  AND     1.00 ATM

   This Molecule has  0 Imaginary Frequencies
   Zero point vibrational energy:       78.804 kcal/mol

   Atom    1 Element C  Has Mass   12.00000
   Atom    2 Element O  Has Mass   15.99491
   Atom    3 Element C  Has Mass   12.00000
   Atom    4 Element O  Has Mass   15.99491
   Atom    5 Element O  Has Mass   15.99491
   Atom    6 Element C  Has Mass   12.00000
   Atom    7 Element C  Has Mass   12.00000
   Atom    8 Element C  Has Mass   12.00000
   Atom    9 Element O  Has Mass   15.99491
   Atom   10 Element O  Has Mass   15.99491
   Atom   11 Element H  Has Mass    1.00783
   Atom   12 Element H  Has Mass    1.00783
   Atom   13 Element H  Has Mass    1.00783
   Atom   14 Element H  Has Mass    1.00783
   Atom   15 Element H  Has Mass    1.00783
   Atom   16 Element H  Has Mass    1.00783
   Atom   17 Element H  Has Mass    1.00783
   Molecular Mass:   147.029360 amu
   Principal axes and moments of inertia in amu*Bohr^2:
                             1           2           3
    Eigenvalues --      622.75588  2354.70763  2488.58133
          X               0.97345    -0.14113    -0.18021
          Y               0.11446    -0.38163     0.91720
          Z               0.19822     0.91348     0.35534
   Rotational Symmetry Number is   1
   The Molecule is an Asymmetric Top
   Translational Enthalpy:        0.889 kcal/mol
   Rotational Enthalpy:           0.889 kcal/mol
   Vibrational Enthalpy:         83.517 kcal/mol
   gas constant (RT):             0.592 kcal/mol
   Translational Entropy:        40.867  cal/mol.K
   Rotational Entropy:           29.680  cal/mol.K
   Vibrational Entropy:          30.054  cal/mol.K

   Total Enthalpy:               85.887 kcal/mol
   Total Entropy:               100.600  cal/mol.K
 Total job time:  16068.94s(wall), 390882.61s(cpu)
        *  Thank you very much for using Q-Chem.  Have a nice day.  *
