 Q-Chem 5.4, Q-Chem, Inc., Pleasanton, CA (2021)
 Q-Chem 5.4.1 for Intel X86 EM64T Linux

User input:
--------------------------------------------------------------
$molecule
0 2
C         1.0519447676    0.0831998394    0.3414904749
O         0.7240233490   -1.2786482950    0.5093295731
C         2.5913292784    0.3005087848    0.3097753908
O         3.0940255166   -0.5191516751   -0.7100229365
O         2.8372586417    1.6314631977    0.1533830693
C         3.1884665305    0.0046698504    1.6994907566
C         4.4792507166   -0.0392293899    2.0415966662
C         5.6309710916    0.1889728856    1.1403421173
O         6.7729163617    0.2751535025    1.8290288716
O         5.5970494832    0.2965013031   -0.0792875342
H         0.6309394896    0.7172714109    1.1273974500
H         0.6619926325    0.3974233507   -0.6291238335
H         0.7985230496   -1.4914270111    1.4538427376
H         2.4528574041   -0.1347380235    2.4887358208
H         4.7402830688   -0.2473191149    3.0747307443
H         7.4986708238    0.4282563318    1.1919636587
H         4.0592297948   -0.3399017472   -0.7363774269
$end

$rem
BASIS = 6-311++G(2df,2p)
GUI = 2
JOB_TYPE = Optimization
METHOD = wB97M-V
SCF_ALGORITHM = DIIS_GDM
MAX_SCF_CYCLES = 400
GEOM_OPT_MAX_CYCLES = 150
SCF_CONVERGENCE = 7
THRESH = 12
Solvent_method = SMD
$end
--------------------------------------------------------------

   24    -570.8364048401      7.32e-08  Convergence criterion met
 Total energy in the final basis set =     -570.8285977055
   22    -570.8365923512      8.78e-08  Convergence criterion met
 Total energy in the final basis set =     -570.8287312053
   24    -570.8351089361      6.82e-08  Convergence criterion met
 Total energy in the final basis set =     -570.8269579976
   24    -570.8370238458      7.63e-08  Convergence criterion met
 Total energy in the final basis set =     -570.8290928659
   23    -570.8367974779      5.95e-08  Convergence criterion met
 Total energy in the final basis set =     -570.8288931960
   24    -570.8370887506      7.83e-08  Convergence criterion met
 Total energy in the final basis set =     -570.8291745360
   24    -570.8370990301      7.43e-08  Convergence criterion met
 Total energy in the final basis set =     -570.8291718228
   24    -570.8371304354      7.36e-08  Convergence criterion met
 Total energy in the final basis set =     -570.8292039564
   24    -570.8371285466      8.58e-08  Convergence criterion met
 Total energy in the final basis set =     -570.8292058204
   24    -570.8371307847      8.41e-08  Convergence criterion met
 Total energy in the final basis set =     -570.8292073577
   24    -570.8371353405      8.02e-08  Convergence criterion met
 Total energy in the final basis set =     -570.8292083642

             Standard Nuclear Orientation (Angstroms)
    I     Atom           X                Y                Z
 ----------------------------------------------------------------
    1      C       1.0505187003     0.0607743420     0.3443880338
    2      O       0.7716834123    -1.3096786268     0.5288867014
    3      C       2.5783461204     0.3329542657     0.3049672237
    4      O       3.1064437403    -0.4340924396    -0.7399411393
    5      O       2.7759734055     1.6713103837     0.1805999062
    6      C       3.1891171345     0.0427279730     1.6863496669
    7      C       4.4732480372    -0.0269614463     2.0232627507
    8      C       5.6386714781     0.1603452579     1.1344953222
    9      O       6.7701976884     0.2367644669     1.8336242238
   10      O       5.6226179660     0.2397308428    -0.0809897235
   11      H       0.6146679978     0.6757432673     1.1292331521
   12      H       0.6467937758     0.3546307401    -0.6213279005
   13      H       0.8108601122    -1.5157689009     1.4692088676
   14      H       2.4558458349    -0.0666339880     2.4757547003
   15      H       4.7220324715    -0.2275540194     3.0562381968
   16      H       7.5112515042     0.3661000749     1.2200748964
   17      H       4.0714626206    -0.2873869930    -0.7385292783
 ----------------------------------------------------------------

   24    -570.8371309996      7.30e-08  Convergence criterion met
 Total energy in the final basis set =     -570.8292090061
 Final energy is   -570.829209006072
 **  OPTIMIZATION CONVERGED  **

                    Orbital Energies (a.u.)
 --------------------------------------------------------------

 Alpha MOs
 -- Occupied --
-19.3968 -19.3922 -19.3493 -19.3466 -19.3400 -10.5057 -10.4701 -10.4014
-10.3912 -10.3746  -1.2603  -1.2197  -1.1696  -1.1677  -1.1368  -0.9448
 -0.8642  -0.8132  -0.7427  -0.6906  -0.6668  -0.6507  -0.6354  -0.6122
 -0.5890  -0.5804  -0.5670  -0.5538  -0.5365  -0.5246  -0.5077  -0.4858
 -0.4525  -0.4469  -0.4419  -0.4261  -0.4097  -0.3916  -0.3820

 Beta MOs
 -- Occupied --
-19.3922 -19.3753 -19.3488 -19.3464 -19.3401 -10.5057 -10.4704 -10.4000
-10.3895 -10.3738  -1.2600  -1.2029  -1.1691  -1.1636  -1.1101  -0.9403
 -0.8556  -0.8101  -0.7365  -0.6883  -0.6609  -0.6438  -0.6331  -0.6005
 -0.5872  -0.5743  -0.5606  -0.5505  -0.5230  -0.5136  -0.5034  -0.4552
 -0.4512  -0.4283  -0.4228  -0.4094  -0.4060  -0.3787

          Ground-State Mulliken Net Atomic Charges

     Atom                 Charge (a.u.)    Spin (a.u.)
  --------------------------------------------------------
      1 C                    -0.263249       0.033139
      2 O                    -0.392354       0.015169
      3 C                    -0.328685       0.027829
      4 O                    -0.434580      -0.000524
      5 O                    -0.202543       0.821371
      6 C                     0.131935       0.040539
      7 C                     0.044788       0.055444
      8 C                     0.098869      -0.002466
      9 O                    -0.304624       0.002121
     10 O                    -0.494122       0.005862
     11 H                     0.254868      -0.002303
     12 H                     0.229989      -0.000072
     13 H                     0.332200      -0.000370
     14 H                     0.301659       0.001847
     15 H                     0.300206       0.002019
     16 H                     0.363236      -0.000191
     17 H                     0.362407       0.000586
  --------------------------------------------------------
  Sum of atomic charges =    -0.000000

                    Cartesian Multipole Moments
 -----------------------------------------------------------------
    Charge (ESU x 10^10)
                -0.0000
    Dipole Moment (Debye)
         X       1.4568      Y      -0.1429      Z       6.4777
       Tot       6.6411
    Quadrupole Moments (Debye-Ang)
        XX     -33.3272     XY      -3.0756     YY     -66.0626
        XZ      18.7372     YZ      -3.8377     ZZ     -49.6052

 Total job time:  2716.21s(wall), 38919.93s(cpu)
        *  Thank you very much for using Q-Chem.  Have a nice day.  *
