 Q-Chem 5.4, Q-Chem, Inc., Pleasanton, CA (2021)
 Q-Chem 5.4.1 for Intel X86 EM64T Linux

User input:
--------------------------------------------------------------
$molecule
0 2
C         1.4200034624   -0.2579976046   -0.3644810182
O         2.0152369936   -0.9222759067   -1.4637621480
C        -0.0766918770   -0.1000323415   -0.5950827876
O        -0.6873034121   -1.3359526123   -0.6079251737
O        -0.3487189096    0.6944704493   -1.6902116310
O         2.0266563211    0.9900973459   -0.2292224782
H         1.5894440899   -0.8112642556    0.5582744064
H         1.6787244355   -1.8265186906   -1.4939771350
H        -1.5804943930   -1.2446208289   -0.9674115810
H        -1.1239249765    1.2487190576   -1.4851617510
H         1.7149694416    1.5545012763   -0.9502637065
O        -1.2447290818    1.3719533684    1.0631001051
O        -2.1050861248    1.8961379872    0.0984816611
H        -0.5372817056    0.5695647917    0.4009323266
H        -2.8690442638    1.2992997637    0.1182491111
$end

$rem
BASIS = 6-311++G(2df,2p)
GUI = 2
JOB_TYPE = Frequency
METHOD = wB97M-V
SOLVENT_METHOD = SMD
SCF_ALGORITHM = DIIS_GDM
MAX_SCF_CYCLES = 400
SCF_CONVERGENCE = 7
THRESH = 12
UNRESTRICTED = 1
SYMMETRY_IGNORE = 1
$end

--------------------------------------------------------------

   20    -531.6636588146      3.60e-08  Convergence criterion met
 Total energy in the final basis set =     -531.6582570150
   19    -531.6636634674      2.28e-08  Convergence criterion met
 Total energy in the final basis set =     -531.6582561087
   19    -531.6636524436      2.38e-08  Convergence criterion met
 Total energy in the final basis set =     -531.6582561086
   19    -531.6636657130      2.26e-08  Convergence criterion met
 Total energy in the final basis set =     -531.6582558932
   19    -531.6636499899      2.31e-08  Convergence criterion met
 Total energy in the final basis set =     -531.6582559616
   19    -531.6636587229      2.26e-08  Convergence criterion met
 Total energy in the final basis set =     -531.6582559068
   19    -531.6636568536      2.30e-08  Convergence criterion met
 Total energy in the final basis set =     -531.6582558869
   19    -531.6636577467      2.28e-08  Convergence criterion met
 Frequency:     -1890.73                  37.65                  61.90
 Force Cnst:      2.3991                 0.0032                 0.0104
 Red. Mass:       1.1390                 3.8586                 4.5932
 IR Intens:     5500.741                 25.977                 44.495
 Frequency:        78.30                 111.21                 168.66
 Force Cnst:      0.0049                 0.0420                 0.0896
 Red. Mass:       1.3506                 5.7652                 5.3448
 IR Intens:      131.715                 13.661                 27.005
 Frequency:       210.44                 257.69                 257.94
 Force Cnst:      0.1370                 0.1755                 0.0492
 Red. Mass:       5.2502                 4.4846                 1.2551
 IR Intens:       13.664                 30.527                231.679
 Frequency:       293.69                 360.71                 391.21
 Force Cnst:      0.2655                 0.0898                 0.1042
 Red. Mass:       5.2252                 1.1717                 1.1557
 IR Intens:       44.236                179.364                101.124
 Frequency:       441.95                 450.75                 505.77
 Force Cnst:      0.6097                 0.5266                 0.1872
 Red. Mass:       5.2979                 4.3990                 1.2420
 IR Intens:       60.858                141.935                216.279
 Frequency:       540.00                 616.21                 787.62
 Force Cnst:      0.8057                 1.0399                 1.8630
 Red. Mass:       4.6894                 4.6482                 5.0971
 IR Intens:       39.580                 18.852                170.997
 Frequency:       894.38                1060.74                1084.62
 Force Cnst:      1.6221                 4.1772                 2.2987
 Red. Mass:       3.4418                 6.3010                 3.3165
 IR Intens:       40.195                133.506                271.787
 Frequency:      1116.27                1126.84                1164.28
 Force Cnst:      1.4480                 1.3956                 1.2667
 Red. Mass:       1.9724                 1.8655                 1.5860
 IR Intens:       77.204                195.934                166.605
 Frequency:      1204.55                1217.23                1274.97
 Force Cnst:      2.8960                 1.2222                 1.2448
 Red. Mass:       3.3877                 1.4001                 1.2998
 IR Intens:      392.570                283.942                279.494
 Frequency:      1356.74                1383.07                1408.40
 Force Cnst:      1.6827                 1.5545                 1.2950
 Red. Mass:       1.5515                 1.3793                 1.1081
 IR Intens:      103.556                 21.294                 74.373
 Frequency:      1430.78                1454.88                1541.90
 Force Cnst:      1.7251                 2.0897                 1.5483
 Red. Mass:       1.4303                 1.6756                 1.1053
 IR Intens:       15.772                 74.290                 21.596
 Frequency:      3110.01                3613.45                3741.76
 Force Cnst:      6.2006                 8.2038                 8.8117
 Red. Mass:       1.0881                 1.0664                 1.0682
 IR Intens:       36.606                257.114                156.493
 Frequency:      3769.97                3780.93                3810.26
 Force Cnst:      8.9240                 8.9788                 9.1191
 Red. Mass:       1.0657                 1.0660                 1.0661
 IR Intens:      131.024                194.374                154.099

 STANDARD THERMODYNAMIC QUANTITIES AT   298.15 K  AND     1.00 ATM

   This Molecule has  1 Imaginary Frequencies
   Zero point vibrational energy:       65.929 kcal/mol

   Atom    1 Element C  Has Mass   12.00000
   Atom    2 Element O  Has Mass   15.99491
   Atom    3 Element C  Has Mass   12.00000
   Atom    4 Element O  Has Mass   15.99491
   Atom    5 Element O  Has Mass   15.99491
   Atom    6 Element O  Has Mass   15.99491
   Atom    7 Element H  Has Mass    1.00783
   Atom    8 Element H  Has Mass    1.00783
   Atom    9 Element H  Has Mass    1.00783
   Atom   10 Element H  Has Mass    1.00783
   Atom   11 Element H  Has Mass    1.00783
   Atom   12 Element O  Has Mass   15.99491
   Atom   13 Element O  Has Mass   15.99491
   Atom   14 Element H  Has Mass    1.00783
   Atom   15 Element H  Has Mass    1.00783
   Molecular Mass:   127.024270 amu
   Principal axes and moments of inertia in amu*Bohr^2:
                             1           2           3
    Eigenvalues --      598.40821  1453.41464  1677.35962
          X               0.83077     0.55252     0.06736
          Y              -0.46451     0.75488    -0.46302
          Z              -0.30667     0.35338     0.88379
   Rotational Symmetry Number is   1
   The Molecule is an Asymmetric Top
   Translational Enthalpy:        0.889 kcal/mol
   Rotational Enthalpy:           0.889 kcal/mol
   Vibrational Enthalpy:         70.829 kcal/mol
   gas constant (RT):             0.592 kcal/mol
   Translational Entropy:        40.431  cal/mol.K
   Rotational Entropy:           28.769  cal/mol.K
   Vibrational Entropy:          32.481  cal/mol.K

   Total Enthalpy:               73.199 kcal/mol
   Total Entropy:               101.680  cal/mol.K
 Total job time:  16765.13s(wall), 129672.76s(cpu)
        *  Thank you very much for using Q-Chem.  Have a nice day.  *
 Q-Chem 5.4, Q-Chem, Inc., Pleasanton, CA (2021)
 Q-Chem 5.4.1 for Intel X86 EM64T Linux

User input:
--------------------------------------------------------------

$molecule
read
$end

$rem
JOBTYPE            rpath
SCF_GUESS          read
RPATH_MAX_CYCLES   30
BASIS = 6-311++G(2df,2p)
METHOD = wB97M-V
SOLVENT_METHOD = SMD
SCF_ALGORITHM = DIIS_GDM
SCF_CONVERGENCE = 7
THRESH = 12
$end

--------------------------------------------------------------

 Total energy in the final basis set =     -531.6869013025
   19    -531.6922847722      6.50e-08  Convergence criterion met
 Total energy in the final basis set =     -531.6872564087
   19    -531.6921533286      7.51e-08  Convergence criterion met
 Total energy in the final basis set =     -531.6871386564
   19    -531.6923493557      6.09e-08  Convergence criterion met
 Total energy in the final basis set =     -531.6873374088
   20    -531.6916798918      3.49e-08  Convergence criterion met
 Total energy in the final basis set =     -531.6865218461
   19    -531.6924472725      6.23e-08  Convergence criterion met
 Total energy in the final basis set =     -531.6874351054
   19    -531.6924404712      6.10e-08  Convergence criterion met
 Total energy in the final basis set =     -531.6874055146
   19    -531.6924906684      6.14e-08  Convergence criterion met
 Total energy in the final basis set =     -531.6874770148

                    Orbital Energies (a.u.)
 --------------------------------------------------------------

 Alpha MOs
 -- Occupied --
-19.4595 -19.4268 -19.3493 -19.3488 -19.3474 -19.3430 -10.4447 -10.4418
 -1.3421  -1.2195  -1.1871  -1.1432  -1.1316  -1.0021  -0.8522  -0.7476
 -0.6848  -0.6786  -0.6552  -0.6353  -0.6234  -0.6072  -0.6026  -0.5724
 -0.5148  -0.5082  -0.4854  -0.4731  -0.4302  -0.4260  -0.4198  -0.4158
 -0.4046  -0.3892

 Beta MOs
 -- Occupied --
-19.4504 -19.4069 -19.3491 -19.3488 -19.3474 -19.3430 -10.4446 -10.4416
 -1.3153  -1.2194  -1.1870  -1.1431  -1.1315  -0.9615  -0.8520  -0.7474
 -0.6775  -0.6674  -0.6527  -0.6306  -0.6226  -0.5857  -0.5723  -0.5348
 -0.5135  -0.5061  -0.4852  -0.4726  -0.4286  -0.4214  -0.4122  -0.3975
 -0.3902

          Ground-State Mulliken Net Atomic Charges

     Atom                 Charge (a.u.)    Spin (a.u.)
  --------------------------------------------------------
      1 C                    -0.020196      -0.000395
      2 O                    -0.455733       0.000125
      3 C                    -0.158450       0.011856
      4 O                    -0.450228       0.000753
      5 O                    -0.452873      -0.001189
      6 O                    -0.414315      -0.000141
      7 H                     0.265065      -0.000259
      8 H                     0.324318       0.000035
      9 H                     0.355255      -0.000211
     10 H                     0.367740       0.005463
     11 H                     0.323239       0.000032
     12 O                    -0.273202       0.709591
     13 O                    -0.006612       0.284376
     14 H                     0.268048      -0.004225
     15 H                     0.327945      -0.005810
  --------------------------------------------------------
  Sum of atomic charges =    -0.000000

                    Cartesian Multipole Moments
 -----------------------------------------------------------------
    Charge (ESU x 10^10)
                -0.0000
    Dipole Moment (Debye)
         X      -8.1633      Y      -0.7698      Z       0.4947
       Tot       8.2144
    Quadrupole Moments (Debye-Ang)
        XX     -42.1064     XY      -3.5340     YY     -48.4212
        XZ       7.3457     YZ      -4.4951     ZZ     -55.9450

             Standard Nuclear Orientation (Angstroms)
    I     Atom           X                Y                Z
 ----------------------------------------------------------------
    1      C       1.4200034624    -0.2579976046    -0.3644810182
    2      O       2.0152369936    -0.9222759067    -1.4637621480
    3      C      -0.0766918770    -0.1000323415    -0.5950827876
    4      O      -0.6873034121    -1.3359526123    -0.6079251737
    5      O      -0.3487189096     0.6944704493    -1.6902116310
    6      O       2.0266563211     0.9900973459    -0.2292224782
    7      H       1.5894440899    -0.8112642556     0.5582744064
    8      H       1.6787244355    -1.8265186906    -1.4939771350
    9      H      -1.5804943930    -1.2446208289    -0.9674115810
   10      H      -1.1239249765     1.2487190576    -1.4851617510
   11      H       1.7149694416     1.5545012763    -0.9502637065
   12      O      -1.2447290818     1.3719533684     1.0631001051
   13      O      -2.1050861248     1.8961379872     0.0984816611
   14      H      -0.5372817056     0.5695647917     0.4009323266
   15      H      -2.8690442638     1.2992997637     0.1182491111
 ----------------------------------------------------------------

 Total job time:  17124.42s(wall), 132405.94s(cpu)
        *  Thank you very much for using Q-Chem.  Have a nice day.  *
