 Q-Chem 5.4, Q-Chem, Inc., Pleasanton, CA (2021)
 Q-Chem 5.4.1 for Intel X86 EM64T Linux

User input:
--------------------------------------------------------------
$molecule
0 2
C    1.2946813   -0.1306123   -0.4106350
O    2.1171092   -0.7349785   -1.3785423
C   -0.1874899   -0.2463539   -0.7951645
O   -0.5438793   -1.6003373   -0.8723816
O   -0.4055921    0.3727419   -2.0349266
O    1.6600042    1.2154524   -0.2514392
H    1.4529005   -0.6268282    0.5749081
H    2.1207465   -1.7093450   -1.1883492
H   -1.5346954   -1.6280010   -0.8327439
H   -1.3803867    0.5490387   -2.0873820
H    1.6957058    1.6226557   -1.1562667
O   -1.8165179    0.8879198    1.0139535
O   -1.5381712    2.1708467    1.1276255
H   -0.9196065    0.3658325    0.2005060
H   -2.1430485    2.6180503    0.4823761
$end

$rem
BASIS = 6-311++G(2df,2p)
GUI = 2
JOB_TYPE = Frequency
METHOD = wB97M-V
SCF_ALGORITHM = DIIS_GDM
MAX_SCF_CYCLES = 400
SCF_CONVERGENCE = 6
THRESH = 11
SYMMETRY_IGNORE = 1
solvent_method = SMD
$end

--------------------------------------------------------------

   18    -531.6468345612      5.19e-07  Convergence criterion met
 Total energy in the final basis set =     -531.6411743097
   15    -531.6468256607      5.46e-07  Convergence criterion met
 Total energy in the final basis set =     -531.6411601602
   14    -531.6468418141      9.67e-07  Convergence criterion met
 Total energy in the final basis set =     -531.6411866306
   15    -531.6468298806      5.56e-07  Convergence criterion met
 Total energy in the final basis set =     -531.6411653353
   15    -531.6468374011      5.24e-07  Convergence criterion met
 Total energy in the final basis set =     -531.6411809723
   15    -531.6468703868      5.37e-07  Convergence criterion met
 Total energy in the final basis set =     -531.6412118808
   15    -531.6467967007      5.27e-07  Convergence criterion met
 Total energy in the final basis set =     -531.6411344842
   15    -531.6468346161      4.97e-07  Convergence criterion met
 Frequency:     -2594.46                -159.88                 -81.80
 Force Cnst:      4.4336                 0.1017                 0.0276
 Red. Mass:       1.1179                 6.7531                 7.0090
 IR Intens:    17677.397                 16.848                  3.471
 Frequency:        99.51                 135.47                 206.18
 Force Cnst:      0.0405                 0.0673                 0.1893
 Red. Mass:       6.9378                 6.2243                 7.5599
 IR Intens:        7.008                  2.774                  1.650
 Frequency:       264.17                 277.19                 324.08
 Force Cnst:      0.2544                 0.3155                 0.5084
 Red. Mass:       6.1864                 6.9694                 8.2156
 IR Intens:        3.319                  2.024                 14.992
 Frequency:       436.52                 530.63                 595.22
 Force Cnst:      0.6940                 0.5148                 0.3563
 Red. Mass:       6.1817                 3.1032                 1.7069
 IR Intens:        1.295                 18.701                 83.470
 Frequency:       614.06                 632.33                 654.09
 Force Cnst:      0.2801                 0.2543                 0.3045
 Red. Mass:       1.2609                 1.0795                 1.2082
 IR Intens:      217.897                305.166                240.683
 Frequency:       661.49                 676.53                 793.00
 Force Cnst:      0.3061                 0.4538                 1.9817
 Red. Mass:       1.1874                 1.6830                 5.3485
 IR Intens:       29.178                392.680                196.898
 Frequency:       900.99                1142.76                1193.37
 Force Cnst:      1.6279                 1.6479                 1.7097
 Red. Mass:       3.4037                 2.1417                 2.0376
 IR Intens:       20.768                293.622                 84.899
 Frequency:      1230.04                1252.24                1288.86
 Force Cnst:      3.1460                 2.9248                 3.4633
 Red. Mass:       3.5291                 3.1657                 3.5386
 IR Intens:      539.949                310.497                216.032
 Frequency:      1296.29                1314.39                1319.29
 Force Cnst:      1.8811                 1.2813                 1.1694
 Red. Mass:       1.9000                 1.2588                 1.1404
 IR Intens:       96.796                141.182                196.738
 Frequency:      1422.39                1450.78                1458.23
 Force Cnst:      1.7338                 1.6161                 1.5495
 Red. Mass:       1.4545                 1.3032                 1.2368
 IR Intens:      123.412                112.265                 21.347
 Frequency:      1498.60                1520.27                1536.83
 Force Cnst:      2.0018                 2.1191                 1.5460
 Red. Mass:       1.5129                 1.5562                 1.1110
 IR Intens:       65.544                 25.526                 68.576
 Frequency:      2881.72                3445.37                3453.87
 Force Cnst:      5.3246                 7.4691                 7.4899
 Red. Mass:       1.0883                 1.0679                 1.0657
 IR Intens:       47.049                205.403                 91.363
 Frequency:      3458.88                3464.01                3464.93
 Force Cnst:      7.5127                 7.5367                 7.5398
 Red. Mass:       1.0658                 1.0660                 1.0659
 IR Intens:      212.217                195.522                 99.990

 STANDARD THERMODYNAMIC QUANTITIES AT   298.15 K  AND     1.00 ATM

   This Molecule has  3 Imaginary Frequencies
   Zero point vibrational energy:       67.039 kcal/mol

   Atom    1 Element C  Has Mass   12.00000
   Atom    2 Element O  Has Mass   15.99491
   Atom    3 Element C  Has Mass   12.00000
   Atom    4 Element O  Has Mass   15.99491
   Atom    5 Element O  Has Mass   15.99491
   Atom    6 Element O  Has Mass   15.99491
   Atom    7 Element H  Has Mass    1.00783
   Atom    8 Element H  Has Mass    1.00783
   Atom    9 Element H  Has Mass    1.00783
   Atom   10 Element H  Has Mass    1.00783
   Atom   11 Element H  Has Mass    1.00783
   Atom   12 Element O  Has Mass   15.99491
   Atom   13 Element O  Has Mass   15.99491
   Atom   14 Element H  Has Mass    1.00783
   Atom   15 Element H  Has Mass    1.00783
   Molecular Mass:   127.024270 amu
   Principal axes and moments of inertia in amu*Bohr^2:
                             1           2           3
    Eigenvalues --      706.64407  1501.76713  1821.28372
          X               0.71293     0.67391     0.19383
          Y              -0.49365     0.67865    -0.54383
          Z              -0.49803     0.29203     0.81650
   Rotational Symmetry Number is   1
   The Molecule is an Asymmetric Top
   Translational Enthalpy:        0.889 kcal/mol
   Rotational Enthalpy:           0.889 kcal/mol
   Vibrational Enthalpy:         70.089 kcal/mol
   gas constant (RT):             0.592 kcal/mol
   Translational Entropy:        40.431  cal/mol.K
   Rotational Entropy:           29.048  cal/mol.K
   Vibrational Entropy:          17.344  cal/mol.K

   Total Enthalpy:               72.459 kcal/mol
   Total Entropy:                86.823  cal/mol.K
 Total job time:  7777.53s(wall), 108982.16s(cpu)
        *  Thank you very much for using Q-Chem.  Have a nice day.  *
 Q-Chem 5.4, Q-Chem, Inc., Pleasanton, CA (2021)
 Q-Chem 5.4.1 for Intel X86 EM64T Linux

User input:
--------------------------------------------------------------

$rem
JOBTYPE = ts
SCF_GUESS = read
GEOM_OPT_HESSIAN = read
MAX_SCF_CYCLES = 350
GEOM_OPT_DMAX = 60
GEOM_OPT_MAX_CYCLES = 250
METHOD = wB97M-v
BASIS = 6-311++G(2df,2p)
SCF_CONVERGENCE = 7
THRESH = 12
SCF_ALGORITHM = DIIS_GDM
solvent_method = SMD
$end

$molecule
read
$end
--------------------------------------------------------------

   19    -531.6636211387      2.38e-08  Convergence criterion met
 Total energy in the final basis set =     -531.6582380262
   19    -531.6636464971      2.39e-08  Convergence criterion met
 Total energy in the final basis set =     -531.6582403012
   19    -531.6636476684      2.27e-08  Convergence criterion met
 Total energy in the final basis set =     -531.6582453692
   19    -531.6636625946      2.46e-08  Convergence criterion met
 Total energy in the final basis set =     -531.6582493444
   19    -531.6636560531      2.37e-08  Convergence criterion met
 Total energy in the final basis set =     -531.6582537610
   19    -531.6636598880      2.41e-08  Convergence criterion met
 Total energy in the final basis set =     -531.6582562816

             Standard Nuclear Orientation (Angstroms)
    I     Atom           X                Y                Z
 ----------------------------------------------------------------
    1      C       1.4200034624    -0.2579976046    -0.3644810182
    2      O       2.0152369936    -0.9222759067    -1.4637621480
    3      C      -0.0766918770    -0.1000323415    -0.5950827876
    4      O      -0.6873034121    -1.3359526123    -0.6079251737
    5      O      -0.3487189096     0.6944704493    -1.6902116310
    6      O       2.0266563211     0.9900973459    -0.2292224782
    7      H       1.5894440899    -0.8112642556     0.5582744064
    8      H       1.6787244355    -1.8265186906    -1.4939771350
    9      H      -1.5804943930    -1.2446208289    -0.9674115810
   10      H      -1.1239249765     1.2487190576    -1.4851617510
   11      H       1.7149694416     1.5545012763    -0.9502637065
   12      O      -1.2447290818     1.3719533684     1.0631001051
   13      O      -2.1050861248     1.8961379872     0.0984816611
   14      H      -0.5372817056     0.5695647917     0.4009323266
   15      H      -2.8690442638     1.2992997637     0.1182491111
 ----------------------------------------------------------------

   19    -531.6636588144      2.30e-08  Convergence criterion met
 Total energy in the final basis set =     -531.6582570149
 Final energy is   -531.658257014885
 **  OPTIMIZATION CONVERGED  **

                    Orbital Energies (a.u.)
 --------------------------------------------------------------

 Alpha MOs
 -- Occupied --
-19.4117 -19.4036 -19.3711 -19.3653 -19.3531 -19.3482 -10.4669 -10.4558
 -1.2767  -1.2366  -1.2012  -1.1615  -1.1402  -1.0047  -0.8611  -0.7556
 -0.7021  -0.6794  -0.6501  -0.6418  -0.6392  -0.5840  -0.5660  -0.5551
 -0.5329  -0.5194  -0.4904  -0.4831  -0.4409  -0.4369  -0.4323  -0.4144
 -0.4029  -0.3281

 Beta MOs
 -- Occupied --
-19.4097 -19.3901 -19.3684 -19.3636 -19.3531 -19.3475 -10.4596 -10.4554
 -1.2633  -1.2314  -1.1992  -1.1565  -1.1391  -0.9838  -0.8532  -0.7513
 -0.6906  -0.6655  -0.6464  -0.6350  -0.6310  -0.5826  -0.5570  -0.5320
 -0.5177  -0.5037  -0.4887  -0.4754  -0.4371  -0.4314  -0.4061  -0.4012
 -0.3856

          Ground-State Mulliken Net Atomic Charges

     Atom                 Charge (a.u.)    Spin (a.u.)
  --------------------------------------------------------
      1 C                     0.007455       0.003316
      2 O                    -0.441757       0.021086
      3 C                    -0.261142       0.364769
      4 O                    -0.372565       0.083423
      5 O                    -0.402585       0.042955
      6 O                    -0.407082      -0.000775
      7 H                     0.288533      -0.000575
      8 H                     0.330651      -0.000041
      9 H                     0.370202      -0.002857
     10 H                     0.376237      -0.000177
     11 H                     0.329307      -0.000032
     12 O                    -0.388584       0.393847
     13 O                    -0.194230       0.071078
     14 H                     0.439249       0.025803
     15 H                     0.326311      -0.001818
  --------------------------------------------------------
  Sum of atomic charges =     0.000000

                    Cartesian Multipole Moments
 -----------------------------------------------------------------
    Charge (ESU x 10^10)
                 0.0000
    Dipole Moment (Debye)
         X      -5.9849      Y      -2.6796      Z      -1.3361
       Tot       6.6921
    Quadrupole Moments (Debye-Ang)
        XX     -43.8842     XY      -1.1914     YY     -48.6427
        XZ       7.5264     YZ      -3.2997     ZZ     -53.4689

 Total job time:  8218.59s(wall), 116418.31s(cpu)
        *  Thank you very much for using Q-Chem.  Have a nice day.  *
