 Q-Chem 5.4, Q-Chem, Inc., Pleasanton, CA (2021)
 Q-Chem 5.4.1 for Intel X86 EM64T Linux

User input:
--------------------------------------------------------------
$molecule
0 2
C        -0.0018404122   -0.2111117093    0.7850936061
C        -0.8543848161   -0.9918940042    1.7683029115
C        -1.5196683997   -2.2109419019    1.1227945149
C        -2.0055640006   -1.9339193494   -0.2641669056
C        -1.8515154361   -0.7350846070   -0.8087086325
C        -1.1496036673    0.3646171657   -0.0495378539
C        -0.7251521423    1.5393707568   -0.9154633142
H         0.5037786528    0.6071459078    1.3020086762
H        -0.3494812382   -1.2575758007    2.6940202745
H        -2.3275249030   -2.5552362610    1.7667101376
H        -2.5227452920   -2.7333165745   -0.7779470761
H        -2.2461336117   -0.5083249826   -1.7919990418
H        -1.5761696459    1.9429402106   -1.4647113596
O         0.3079241531    1.1226201974   -1.8034602674
H        -0.3097392532    2.3170653479   -0.2783353600
H        -0.0908969573    0.6657618793   -2.5524873272
O         0.9076945902   -1.0285596615    0.0903002229
H         1.2026554683   -0.5187483791   -0.6774832051
O        -1.8818546619   -0.0585635157    2.1034148666
O        -1.9996977120    0.8785907926    0.9829490540
O        -0.5706882397   -3.3225894704    1.0426109010
O        -0.3880468755   -3.8825907410    2.2045710782
$end

$rem
BASIS = 6-311++G(2df,2p)
GUI = 2
JOB_TYPE = Frequency
METHOD = wB97M-V
SOLVENT_METHOD = SMD
SCF_ALGORITHM = DIIS_GDM
MAX_SCF_CYCLES = 400
SCF_CONVERGENCE = 7
THRESH = 12
UNRESTRICTED = 1
SYMMETRY_IGNORE = 1
$end
--------------------------------------------------------------

   22    -723.2873954645      8.54e-08  Convergence criterion met
 Total energy in the final basis set =     -723.2832142364
   18    -723.2873976100      8.05e-08  Convergence criterion met
 Total energy in the final basis set =     -723.2832132065
   18    -723.2873913486      7.87e-08  Convergence criterion met
 Total energy in the final basis set =     -723.2832131350
   18    -723.2873919287      7.99e-08  Convergence criterion met
 Total energy in the final basis set =     -723.2832131502
   18    -723.2873969931      8.03e-08  Convergence criterion met
 Total energy in the final basis set =     -723.2832131866
   18    -723.2873925966      7.93e-08  Convergence criterion met
 Total energy in the final basis set =     -723.2832133333
   18    -723.2873965091      8.06e-08  Convergence criterion met
 Total energy in the final basis set =     -723.2832132229
   18    -723.2873945473      7.94e-08  Convergence criterion met
 Total energy in the final basis set =     -723.2832132801
   18    -723.2873945876      7.57e-08  Convergence criterion met
 Total energy in the final basis set =     -723.2832134902
   18    -723.2873954284      7.37e-08  Convergence criterion met
 Total energy in the final basis set =     -723.2832141704
   18    -723.2873953570      9.14e-08  Convergence criterion met
 Total energy in the final basis set =     -723.2832141589
   18    -723.2873951603      6.22e-08  Convergence criterion met
 Total energy in the final basis set =     -723.2832139883
   18    -723.2873953024      8.96e-08  Convergence criterion met
 Total energy in the final basis set =     -723.2832140184
   18    -723.2873947837      7.12e-08  Convergence criterion met
 Total energy in the final basis set =     -723.2832135964
   18    -723.2873947526      8.29e-08  Convergence criterion met
 Total energy in the final basis set =     -723.2832134836

                    Orbital Energies (a.u.)
 --------------------------------------------------------------

 Alpha MOs
 -- Occupied --
-19.4673 -19.4185 -19.4107 -19.4085 -19.3496 -19.3476 -10.4183 -10.4176
-10.4162 -10.4098 -10.3963 -10.3594 -10.3568  -1.3473  -1.2801  -1.1772
 -1.1638  -1.0797  -1.0313  -0.9603  -0.8917  -0.8541  -0.8145  -0.7557
 -0.7260  -0.6968  -0.6740  -0.6484  -0.6482  -0.6279  -0.6123  -0.6016
 -0.5844  -0.5749  -0.5613  -0.5454  -0.5337  -0.5254  -0.5191  -0.5005
 -0.4872  -0.4610  -0.4567  -0.4336  -0.4151  -0.4118  -0.3975  -0.3858
 -0.3738  -0.3634

 Beta MOs
 -- Occupied --
-19.4568 -19.4107 -19.4085 -19.3999 -19.3496 -19.3476 -10.4187 -10.4176
-10.4159 -10.4098 -10.3963 -10.3593 -10.3568  -1.3211  -1.2800  -1.1771
 -1.1638  -1.0793  -1.0103  -0.9490  -0.8903  -0.8497  -0.8102  -0.7547
 -0.7233  -0.6942  -0.6704  -0.6464  -0.6326  -0.6119  -0.6067  -0.5888
 -0.5786  -0.5613  -0.5522  -0.5407  -0.5330  -0.5180  -0.5124  -0.4987
 -0.4790  -0.4604  -0.4533  -0.4326  -0.4016  -0.3945  -0.3908  -0.3771
 -0.3618

          Ground-State Mulliken Net Atomic Charges

     Atom                 Charge (a.u.)    Spin (a.u.)
  --------------------------------------------------------
      1 C                    -0.186040       0.002559
      2 C                    -0.159412       0.017058
      3 C                    -0.507098      -0.017791
      4 C                    -0.092538       0.016313
      5 C                    -0.475793      -0.006977
      6 C                     0.239576      -0.001917
      7 C                    -0.394981      -0.000319
      8 H                     0.327101       0.000466
      9 H                     0.292125      -0.001031
     10 H                     0.311838       0.004802
     11 H                     0.314501      -0.000867
     12 H                     0.315666       0.000015
     13 H                     0.253222       0.000006
     14 O                    -0.376192       0.000058
     15 H                     0.244461      -0.000012
     16 H                     0.327983       0.000048
     17 O                    -0.404014       0.002963
     18 H                     0.337413       0.000406
     19 O                    -0.108545       0.002162
     20 O                    -0.130551      -0.000454
     21 O                     0.088656       0.316043
     22 O                    -0.217379       0.666470
  --------------------------------------------------------
  Sum of atomic charges =    -0.000000

                    Cartesian Multipole Moments
 -----------------------------------------------------------------
    Charge (ESU x 10^10)
                 0.0000
    Dipole Moment (Debye)
         X      -1.6362      Y       2.7533      Z      -4.8584
       Tot       5.8191
    Quadrupole Moments (Debye-Ang)
        XX     -77.7608     XY       7.9148     YY     -89.7769
        XZ       9.2554     YZ       4.9506     ZZ     -72.2200

             Standard Nuclear Orientation (Angstroms)
    I     Atom           X                Y                Z
 ----------------------------------------------------------------
    1      C      -0.0018404122    -0.2111117093     0.7850936061
    2      C      -0.8543848161    -0.9918940042     1.7683029115
    3      C      -1.5196683997    -2.2109419019     1.1227945149
    4      C      -2.0055640006    -1.9339193494    -0.2641669056
    5      C      -1.8515154361    -0.7350846070    -0.8087086325
    6      C      -1.1496036673     0.3646171657    -0.0495378539
    7      C      -0.7251521423     1.5393707568    -0.9154633142
    8      H       0.5037786528     0.6071459078     1.3020086762
    9      H      -0.3494812382    -1.2575758007     2.6940202745
   10      H      -2.3275249030    -2.5552362610     1.7667101376
   11      H      -2.5227452920    -2.7333165745    -0.7779470761
   12      H      -2.2461336117    -0.5083249826    -1.7919990418
   13      H      -1.5761696459     1.9429402106    -1.4647113596
   14      O       0.3079241531     1.1226201974    -1.8034602674
   15      H      -0.3097392532     2.3170653479    -0.2783353600
   16      H      -0.0908969573     0.6657618793    -2.5524873272
   17      O       0.9076945902    -1.0285596615     0.0903002229
   18      H       1.2026554683    -0.5187483791    -0.6774832051
   19      O      -1.8818546619    -0.0585635157     2.1034148666
   20      O      -1.9996977120     0.8785907926     0.9829490540
   21      O      -0.5706882397    -3.3225894704     1.0426109010
   22      O      -0.3880468755    -3.8825907410     2.2045710782
 ----------------------------------------------------------------

 Frequency:        68.80                  94.84                 109.74
 Force Cnst:      0.0281                 0.0473                 0.0287
 Red. Mass:      10.0830                 8.9256                 4.0436
 IR Intens:        1.844                  3.642                  1.895
 Frequency:       167.52                 171.32                 200.08
 Force Cnst:      0.1168                 0.1241                 0.1585
 Red. Mass:       7.0631                 7.1737                 6.7197
 IR Intens:       24.318                  6.373                  1.597
 Frequency:       248.11                 272.65                 324.05
 Force Cnst:      0.1062                 0.2166                 0.0777
 Red. Mass:       2.9276                 4.9460                 1.2554
 IR Intens:       31.725                  5.573                220.049
 Frequency:       328.64                 341.82                 385.62
 Force Cnst:      0.2049                 0.3252                 0.3800
 Red. Mass:       3.2195                 4.7245                 4.3372
 IR Intens:       66.057                  3.653                  4.080
 Frequency:       404.20                 433.39                 482.45
 Force Cnst:      0.1152                 0.5173                 0.6610
 Red. Mass:       1.1972                 4.6746                 4.8198
 IR Intens:      198.896                 18.808                 27.407
 Frequency:       514.65                 563.78                 625.80
 Force Cnst:      0.8154                 1.0046                 1.3997
 Red. Mass:       5.2254                 5.3642                 6.0661
 IR Intens:        8.909                  6.022                  5.205
 Frequency:       645.68                 697.53                 762.92
 Force Cnst:      1.6220                 0.9314                 0.9649
 Red. Mass:       6.6036                 3.2489                 2.8137
 IR Intens:        5.290                 37.528                 19.179
 Frequency:       792.90                 887.20                 897.34
 Force Cnst:      1.1518                 2.7479                 1.6368
 Red. Mass:       3.1094                 5.9254                 3.4501
 IR Intens:       31.821                 26.978                 17.473
 Frequency:       930.96                 944.71                 987.20
 Force Cnst:      1.0575                 1.4642                 4.1241
 Red. Mass:       2.0710                 2.7845                 7.1823
 IR Intens:        7.742                  6.580                111.247
 Frequency:      1010.67                1032.72                1041.98
 Force Cnst:      0.9370                 1.1404                 2.3769
 Red. Mass:       1.5570                 1.8149                 3.7157
 IR Intens:       22.466                 29.671                 64.233
 Frequency:      1056.17                1079.71                1115.71
 Force Cnst:      4.2167                 3.6222                 0.9475
 Red. Mass:       6.4159                 5.2737                 1.2919
 IR Intens:      207.509                 27.569                  9.027
 Frequency:      1122.46                1169.72                1197.12
 Force Cnst:      1.2438                 0.9020                 1.3574
 Red. Mass:       1.6756                 1.1189                 1.6076
 IR Intens:       18.191                 13.528                  9.327
 Frequency:      1252.99                1273.58                1274.29
 Force Cnst:      1.5129                10.8522                 1.9796
 Red. Mass:       1.6355                11.3556                 2.0691
 IR Intens:       46.890                 22.473                 67.196
 Frequency:      1289.59                1313.77                1327.80
 Force Cnst:      1.6428                 1.5739                 1.2902
 Red. Mass:       1.6766                 1.5477                 1.2420
 IR Intens:       16.741                 52.303                 36.271
 Frequency:      1343.67                1363.12                1381.40
 Force Cnst:      2.0930                 1.7368                 2.0865
 Red. Mass:       1.9676                 1.5865                 1.8558
 IR Intens:        5.203                 72.899                 80.473
 Frequency:      1387.18                1404.29                1427.22
 Force Cnst:      1.4642                 1.5334                 2.1242
 Red. Mass:       1.2915                 1.3197                 1.7699
 IR Intens:        8.399                 22.179                 16.535
 Frequency:      1461.70                1486.73                1737.27
 Force Cnst:      2.6676                 1.4145                13.1247
 Red. Mass:       2.1191                 1.0861                 7.3808
 IR Intens:       27.800                  4.750                  1.089
 Frequency:      3072.48                3075.36                3110.80
 Force Cnst:      6.0359                 5.9135                 6.1887
 Red. Mass:       1.0852                 1.0612                 1.0854
 IR Intens:       37.019                 56.374                  3.879
 Frequency:      3137.99                3139.70                3182.16
 Force Cnst:      6.3162                 6.4274                 6.4968
 Red. Mass:       1.0887                 1.1066                 1.0890
 IR Intens:        1.566                 26.382                  3.288
 Frequency:      3208.06                3749.75                3823.68
 Force Cnst:      6.6596                 8.8336                 9.1895
 Red. Mass:       1.0983                 1.0663                 1.0668
 IR Intens:        6.225                270.415                131.375

 STANDARD THERMODYNAMIC QUANTITIES AT   298.15 K  AND     1.00 ATM

   This Molecule has  0 Imaginary Frequencies
   Zero point vibrational energy:      104.837 kcal/mol

   Atom    1 Element C  Has Mass   12.00000
   Atom    2 Element C  Has Mass   12.00000
   Atom    3 Element C  Has Mass   12.00000
   Atom    4 Element C  Has Mass   12.00000
   Atom    5 Element C  Has Mass   12.00000
   Atom    6 Element C  Has Mass   12.00000
   Atom    7 Element C  Has Mass   12.00000
   Atom    8 Element H  Has Mass    1.00783
   Atom    9 Element H  Has Mass    1.00783
   Atom   10 Element H  Has Mass    1.00783
   Atom   11 Element H  Has Mass    1.00783
   Atom   12 Element H  Has Mass    1.00783
   Atom   13 Element H  Has Mass    1.00783
   Atom   14 Element O  Has Mass   15.99491
   Atom   15 Element H  Has Mass    1.00783
   Atom   16 Element H  Has Mass    1.00783
   Atom   17 Element O  Has Mass   15.99491
   Atom   18 Element H  Has Mass    1.00783
   Atom   19 Element O  Has Mass   15.99491
   Atom   20 Element O  Has Mass   15.99491
   Atom   21 Element O  Has Mass   15.99491
   Atom   22 Element O  Has Mass   15.99491
   Molecular Mass:   189.039930 amu
   Principal axes and moments of inertia in amu*Bohr^2:
                             1           2           3
    Eigenvalues --     1225.38721  2748.54986  3075.91681
          X               0.03816     0.70258     0.71058
          Y               0.85961    -0.38567     0.33516
          Z              -0.50952    -0.59803     0.61866
   Rotational Symmetry Number is   1
   The Molecule is an Asymmetric Top
   Translational Enthalpy:        0.889 kcal/mol
   Rotational Enthalpy:           0.889 kcal/mol
   Vibrational Enthalpy:        110.389 kcal/mol
   gas constant (RT):             0.592 kcal/mol
   Translational Entropy:        41.616  cal/mol.K
   Rotational Entropy:           30.716  cal/mol.K
   Vibrational Entropy:          32.861  cal/mol.K

   Total Enthalpy:              112.759 kcal/mol
   Total Entropy:               105.194  cal/mol.K
 Total job time:  92884.21s(wall), 712500.87s(cpu)
        *  Thank you very much for using Q-Chem.  Have a nice day.  *
