 Q-Chem 5.4, Q-Chem, Inc., Pleasanton, CA (2021)
 Q-Chem 5.4.1 for Intel X86 EM64T Linux

User input:
--------------------------------------------------------------
$molecule
0 2
C        -0.0097110143   -0.2118357545    0.7852818210
C        -0.8644308188   -0.9929424956    1.7711358461
C        -1.5212365788   -2.2167764371    1.1205269419
C        -2.0247332074   -1.9307255407   -0.2629746142
C        -1.8699678483   -0.7246224395   -0.8070380122
C        -1.1612151105    0.3729870842   -0.0436168709
C        -0.7080332558    1.5373949065   -0.9155792001
H         0.5036855200    0.6075227980    1.3053776055
H        -0.3623271623   -1.2605456609    2.7034883160
H        -2.3170715121   -2.5878150397    1.7720176531
H        -2.5489335726   -2.7309552859   -0.7782788950
H        -2.2771511337   -0.4926092659   -1.7893152176
H        -1.5409157994    1.9419139651   -1.5005596742
O         0.3531154943    1.0956133362   -1.7622316374
H        -0.3036719641    2.3255764907   -0.2762929626
H        -0.0421246127    0.5977367470   -2.4974703777
O         0.8857898166   -1.0270560515    0.0691390002
H         1.1287293682   -0.4925991404   -0.7126190582
O        -1.8989398097   -0.0626449977    2.1088720070
O        -2.0121436448    0.8910384696    0.9880069097
O        -0.5475013072   -3.3080692589    1.0131101985
O        -0.3098662470   -3.8409311292    2.1874961213
$end

$rem
BASIS = 6-311++G(2df,2p)
GUI = 2
JOB_TYPE = Optimization
METHOD = wB97M-V
SCF_ALGORITHM = DIIS_GDM
MAX_SCF_CYCLES = 400
GEOM_OPT_MAX_CYCLES = 150
SCF_CONVERGENCE = 7
THRESH = 12
UNRESTRICTED = 1
Solvent_method = SMD
$end
--------------------------------------------------------------

   22    -723.2865637623      7.43e-08  Convergence criterion met
 Total energy in the final basis set =     -723.2824332356
   19    -723.2873236862      7.56e-08  Convergence criterion met
 Total energy in the final basis set =     -723.2831593628
   18    -723.2873737758      7.91e-08  Convergence criterion met
 Total energy in the final basis set =     -723.2832049650
   18    -723.2873887505      9.70e-08  Convergence criterion met
 Total energy in the final basis set =     -723.2832122244
   18    -723.2873941644      9.19e-08  Convergence criterion met
 Total energy in the final basis set =     -723.2832138331

             Standard Nuclear Orientation (Angstroms)
    I     Atom           X                Y                Z
 ----------------------------------------------------------------
    1      C      -0.0018404122    -0.2111117093     0.7850936061
    2      C      -0.8543848161    -0.9918940042     1.7683029115
    3      C      -1.5196683997    -2.2109419019     1.1227945149
    4      C      -2.0055640006    -1.9339193494    -0.2641669056
    5      C      -1.8515154361    -0.7350846070    -0.8087086325
    6      C      -1.1496036673     0.3646171657    -0.0495378539
    7      C      -0.7251521423     1.5393707568    -0.9154633142
    8      H       0.5037786528     0.6071459078     1.3020086762
    9      H      -0.3494812382    -1.2575758007     2.6940202745
   10      H      -2.3275249030    -2.5552362610     1.7667101376
   11      H      -2.5227452920    -2.7333165745    -0.7779470761
   12      H      -2.2461336117    -0.5083249826    -1.7919990418
   13      H      -1.5761696459     1.9429402106    -1.4647113596
   14      O       0.3079241531     1.1226201974    -1.8034602674
   15      H      -0.3097392532     2.3170653479    -0.2783353600
   16      H      -0.0908969573     0.6657618793    -2.5524873272
   17      O       0.9076945902    -1.0285596615     0.0903002229
   18      H       1.2026554683    -0.5187483791    -0.6774832051
   19      O      -1.8818546619    -0.0585635157     2.1034148666
   20      O      -1.9996977120     0.8785907926     0.9829490540
   21      O      -0.5706882397    -3.3225894704     1.0426109010
   22      O      -0.3880468755    -3.8825907410     2.2045710782
 ----------------------------------------------------------------

   18    -723.2873954647      7.35e-08  Convergence criterion met
 Total energy in the final basis set =     -723.2832142366
 Final energy is   -723.283214236587
 **  OPTIMIZATION CONVERGED  **

                    Orbital Energies (a.u.)
 --------------------------------------------------------------

 Alpha MOs
 -- Occupied --
-19.4673 -19.4186 -19.4107 -19.4085 -19.3496 -19.3476 -10.4183 -10.4176
-10.4162 -10.4098 -10.3963 -10.3594 -10.3568  -1.3468  -1.2801  -1.1772
 -1.1638  -1.0797  -1.0314  -0.9603  -0.8917  -0.8541  -0.8145  -0.7557
 -0.7259  -0.6967  -0.6740  -0.6484  -0.6481  -0.6278  -0.6123  -0.6015
 -0.5844  -0.5749  -0.5613  -0.5454  -0.5337  -0.5254  -0.5191  -0.5005
 -0.4872  -0.4610  -0.4567  -0.4336  -0.4153  -0.4120  -0.3975  -0.3859
 -0.3738  -0.3634

 Beta MOs
 -- Occupied --
-19.4568 -19.4107 -19.4085 -19.4001 -19.3496 -19.3476 -10.4187 -10.4176
-10.4159 -10.4098 -10.3963 -10.3593 -10.3568  -1.3205  -1.2800  -1.1771
 -1.1638  -1.0793  -1.0103  -0.9491  -0.8903  -0.8497  -0.8102  -0.7547
 -0.7233  -0.6942  -0.6703  -0.6464  -0.6325  -0.6119  -0.6067  -0.5888
 -0.5786  -0.5612  -0.5522  -0.5407  -0.5330  -0.5180  -0.5123  -0.4987
 -0.4789  -0.4604  -0.4533  -0.4326  -0.4016  -0.3945  -0.3908  -0.3771
 -0.3619

          Ground-State Mulliken Net Atomic Charges

     Atom                 Charge (a.u.)    Spin (a.u.)
  --------------------------------------------------------
      1 C                    -0.186036       0.002554
      2 C                    -0.159249       0.017047
      3 C                    -0.507376      -0.017774
      4 C                    -0.092352       0.016304
      5 C                    -0.475817      -0.006976
      6 C                     0.239535      -0.001913
      7 C                    -0.394994      -0.000319
      8 H                     0.327100       0.000466
      9 H                     0.292135      -0.001027
     10 H                     0.311866       0.004796
     11 H                     0.314504      -0.000869
     12 H                     0.315668       0.000015
     13 H                     0.253222       0.000006
     14 O                    -0.376187       0.000058
     15 H                     0.244462      -0.000012
     16 H                     0.327981       0.000048
     17 O                    -0.403992       0.002966
     18 H                     0.337405       0.000407
     19 O                    -0.108544       0.002164
     20 O                    -0.130549      -0.000455
     21 O                     0.088359       0.315660
     22 O                    -0.217143       0.666854
  --------------------------------------------------------
  Sum of atomic charges =     0.000000

                    Cartesian Multipole Moments
 -----------------------------------------------------------------
    Charge (ESU x 10^10)
                 0.0000
    Dipole Moment (Debye)
         X      -1.6363      Y       2.7530      Z      -4.8580
       Tot       5.8187
    Quadrupole Moments (Debye-Ang)
        XX     -77.7614     XY       7.9148     YY     -89.7745
        XZ       9.2554     YZ       4.9472     ZZ     -72.2178

 Total job time:  4810.40s(wall), 36764.65s(cpu)
        *  Thank you very much for using Q-Chem.  Have a nice day.  *
