 Q-Chem 5.4, Q-Chem, Inc., Pleasanton, CA (2021)
 Q-Chem 5.4.1 for Intel X86 EM64T Linux

User input:
--------------------------------------------------------------
$molecule
0 2
C        -0.7201402186    2.0448957642    4.0231699867
H        -1.4580268831    2.4599965653    3.3352469222
O        -1.1347987887    1.3968905963    5.0529047004
H        -1.0853854203    0.2580659415    4.6273189032
O        -0.4027132150    0.5053860992    2.9154369428
O        -0.7731511566   -0.4350421755    3.7013598647
C         0.6084382456    2.6835137113    4.0028404239
C         0.8919488057    3.6074948117    3.0021957041
H         0.1345503733    3.8483470080    2.2668357283
C         2.1370828179    4.2168942270    2.9571673580
H         2.3598071872    4.9374858780    2.1826387176
C         3.0943657437    3.9004296314    3.9119432417
H         4.0645910627    4.3774550585    3.8796403668
C         2.8107085943    2.9765454455    4.9127269910
H         3.5595736810    2.7357970539    5.6545137122
C         1.5686031113    2.3660706888    4.9603427378
H         1.3358794597    1.6493126947    5.7358770986
$end

$rem
BASIS = 6-311++G(2df,2p)
GUI = 2
JOB_TYPE = Frequency
METHOD = wB97M-V
SOLVENT_METHOD = SMD
SCF_ALGORITHM = DIIS_GDM
MAX_SCF_CYCLES = 400
SCF_CONVERGENCE = 7
THRESH = 12
UNRESTRICTED = 1
SYMMETRY_IGNORE = 1
$end
--------------------------------------------------------------

   22    -496.4809596434      5.77e-08  Convergence criterion met
 Total energy in the final basis set =     -496.4755729062
   17    -496.4809556814      7.89e-08  Convergence criterion met
 Total energy in the final basis set =     -496.4755718892
   18    -496.4809615738      2.04e-08  Convergence criterion met
 Total energy in the final basis set =     -496.4755718949
   17    -496.4809573868      9.33e-08  Convergence criterion met
 Total energy in the final basis set =     -496.4755722100
   17    -496.4809605049      7.27e-08  Convergence criterion met
 Total energy in the final basis set =     -496.4755722181
   18    -496.4809629541      2.52e-08  Convergence criterion met
 Total energy in the final basis set =     -496.4755720221
   17    -496.4809545324      6.84e-08  Convergence criterion met
 Total energy in the final basis set =     -496.4755720157
   18    -496.4809595307      2.43e-08  Convergence criterion met
 Total energy in the final basis set =     -496.4755719599
   17    -496.4809583115      9.53e-08  Convergence criterion met
 Total energy in the final basis set =     -496.4755719720
   17    -496.4809594416      9.60e-08  Convergence criterion met
 Total energy in the final basis set =     -496.4755727979
   17    -496.4809596089      9.57e-08  Convergence criterion met
 Total energy in the final basis set =     -496.4755727779
   17    -496.4809591542      9.58e-08  Convergence criterion met
 Total energy in the final basis set =     -496.4755725780
   17    -496.4809595105      9.59e-08  Convergence criterion met
 Total energy in the final basis set =     -496.4755726112
   17    -496.4809594281      9.57e-08  Convergence criterion met
 Total energy in the final basis set =     -496.4755725318
   17    -496.4809591289      9.59e-08  Convergence criterion met
 Total energy in the final basis set =     -496.4755725493

                    Orbital Energies (a.u.)
 --------------------------------------------------------------

 Alpha MOs
 -- Occupied --
-19.4495 -19.4472 -19.3410 -10.4581 -10.3597 -10.3544 -10.3530 -10.3516
-10.3487 -10.3486  -1.3625  -1.1844  -0.9990  -0.9750  -0.8951  -0.8784
 -0.7809  -0.7318  -0.7089  -0.6973  -0.6465  -0.6261  -0.6196  -0.5939
 -0.5737  -0.5434  -0.5421  -0.5281  -0.5016  -0.4753  -0.4592  -0.4444
 -0.4302  -0.4159  -0.3836  -0.3541  -0.3482

 Beta MOs
 -- Occupied --
-19.4331 -19.4329 -19.3410 -10.4584 -10.3595 -10.3544 -10.3530 -10.3516
-10.3487 -10.3486  -1.3342  -1.1835  -0.9976  -0.9395  -0.8915  -0.8784
 -0.7794  -0.7314  -0.6991  -0.6965  -0.6399  -0.6056  -0.5953  -0.5741
 -0.5495  -0.5424  -0.5303  -0.5257  -0.4988  -0.4697  -0.4585  -0.4443
 -0.4164  -0.3943  -0.3542  -0.3445

          Ground-State Mulliken Net Atomic Charges

     Atom                 Charge (a.u.)    Spin (a.u.)
  --------------------------------------------------------
      1 C                    -0.540851      -0.041683
      2 H                     0.327440       0.004333
      3 O                    -0.463219       0.001510
      4 H                     0.370965      -0.009321
      5 O                    -0.050667       0.555290
      6 O                    -0.129466       0.471022
      7 C                     0.873096       0.017399
      8 C                    -0.912030       0.002005
      9 H                     0.265968       0.000697
     10 C                    -0.371521      -0.000487
     11 H                     0.285457      -0.000249
     12 C                    -0.315651       0.000395
     13 H                     0.281143       0.000202
     14 C                    -0.405659      -0.000541
     15 H                     0.283262      -0.000151
     16 C                     0.224059      -0.000762
     17 H                     0.277675       0.000344
  --------------------------------------------------------
  Sum of atomic charges =     0.000000

                    Cartesian Multipole Moments
 -----------------------------------------------------------------
    Charge (ESU x 10^10)
                 0.0000
    Dipole Moment (Debye)
         X       1.7272      Y       2.8451      Z      -0.9916
       Tot       3.4729
    Quadrupole Moments (Debye-Ang)
        XX     -50.9502     XY       6.6280     YY     -47.3581
        XZ      11.3062     YZ       2.4892     ZZ     -66.7510

             Standard Nuclear Orientation (Angstroms)
    I     Atom           X                Y                Z
 ----------------------------------------------------------------
    1      C      -0.7201402186     2.0448957642     4.0231699867
    2      H      -1.4580268831     2.4599965653     3.3352469222
    3      O      -1.1347987887     1.3968905963     5.0529047004
    4      H      -1.0853854203     0.2580659415     4.6273189032
    5      O      -0.4027132150     0.5053860992     2.9154369428
    6      O      -0.7731511566    -0.4350421755     3.7013598647
    7      C       0.6084382456     2.6835137113     4.0028404239
    8      C       0.8919488057     3.6074948117     3.0021957041
    9      H       0.1345503733     3.8483470080     2.2668357283
   10      C       2.1370828179     4.2168942270     2.9571673580
   11      H       2.3598071872     4.9374858780     2.1826387176
   12      C       3.0943657437     3.9004296314     3.9119432417
   13      H       4.0645910627     4.3774550585     3.8796403668
   14      C       2.8107085943     2.9765454455     4.9127269910
   15      H       3.5595736810     2.7357970539     5.6545137122
   16      C       1.5686031113     2.3660706888     4.9603427378
   17      H       1.3358794597     1.6493126947     5.7358770986
 ----------------------------------------------------------------

 Frequency:      -994.93                  49.68                  76.55
 Force Cnst:      0.7657                 0.0074                 0.0272
 Red. Mass:       1.3129                 5.0975                 7.8749
 IR Intens:      641.562                  0.536                  1.214
 Frequency:       145.29                 218.23                 258.64
 Force Cnst:      0.0842                 0.1603                 0.2710
 Red. Mass:       6.7674                 5.7125                 6.8752
 IR Intens:        0.666                 30.106                 56.192
 Frequency:       405.86                 414.28                 423.40
 Force Cnst:      0.5813                 0.3042                 0.3903
 Red. Mass:       5.9899                 3.0084                 3.6949
 IR Intens:      106.889                 54.578                190.986
 Frequency:       548.01                 619.96                 624.58
 Force Cnst:      0.5674                 1.3390                 1.4502
 Red. Mass:       3.2069                 5.9127                 6.3096
 IR Intens:      317.779                 25.542                  7.884
 Frequency:       676.24                 710.46                 725.43
 Force Cnst:      1.7175                 0.5675                 4.0401
 Red. Mass:       6.3745                 1.9082                13.0302
 IR Intens:       43.595                 66.320                  4.070
 Frequency:       786.06                 849.11                 878.42
 Force Cnst:      0.5977                 1.9284                 0.5681
 Red. Mass:       1.6417                 4.5397                 1.2496
 IR Intens:       46.062                 60.690                  0.104
 Frequency:       968.70                1005.68                1019.43
 Force Cnst:      0.7523                 0.6440                 3.5909
 Red. Mass:       1.3607                 1.0807                 5.8646
 IR Intens:        5.903                111.841                  2.146
 Frequency:      1021.63                1043.07                1051.86
 Force Cnst:      0.8485                 0.8561                 1.3493
 Red. Mass:       1.3798                 1.3355                 2.0699
 IR Intens:        0.199                  0.081                 12.206
 Frequency:      1102.56                1108.03                1163.76
 Force Cnst:      1.0502                 0.9315                 0.9078
 Red. Mass:       1.4663                 1.2878                 1.1377
 IR Intens:       16.239                156.404                  3.468
 Frequency:      1180.12                1233.56                1316.72
 Force Cnst:      0.9252                 2.6164                 4.1956
 Red. Mass:       1.1276                 2.9184                 4.1073
 IR Intens:       14.503                 88.015                 23.768
 Frequency:      1341.43                1344.64                1360.31
 Force Cnst:      1.6424                15.3294                 1.6049
 Red. Mass:       1.5492                14.3901                 1.4721
 IR Intens:       15.026                143.423                150.772
 Frequency:      1476.80                1528.51                1549.00
 Force Cnst:      3.1371                 3.2462                 4.4036
 Red. Mass:       2.4414                 2.3582                 3.1150
 IR Intens:      125.523                124.996                363.187
 Frequency:      1661.68                1672.71                1873.01
 Force Cnst:      9.9076                 9.9657                 2.1429
 Red. Mass:       6.0901                 6.0453                 1.0368
 IR Intens:       10.738                 35.349                149.136
 Frequency:      3096.44                3188.96                3195.21
 Force Cnst:      6.1531                 6.5219                 6.5472
 Red. Mass:       1.0892                 1.0885                 1.0884
 IR Intens:       51.388                  2.974                  1.594
 Frequency:      3203.99                3212.50                3218.42
 Force Cnst:      6.5980                 6.6592                 6.7054
 Red. Mass:       1.0909                 1.0952                 1.0987
 IR Intens:        9.494                 20.996                 13.693

 STANDARD THERMODYNAMIC QUANTITIES AT   298.15 K  AND     1.00 ATM

   This Molecule has  1 Imaginary Frequencies
   Zero point vibrational energy:       77.982 kcal/mol

   Atom    1 Element C  Has Mass   12.00000
   Atom    2 Element H  Has Mass    1.00783
   Atom    3 Element O  Has Mass   15.99491
   Atom    4 Element H  Has Mass    1.00783
   Atom    5 Element O  Has Mass   15.99491
   Atom    6 Element O  Has Mass   15.99491
   Atom    7 Element C  Has Mass   12.00000
   Atom    8 Element C  Has Mass   12.00000
   Atom    9 Element H  Has Mass    1.00783
   Atom   10 Element C  Has Mass   12.00000
   Atom   11 Element H  Has Mass    1.00783
   Atom   12 Element C  Has Mass   12.00000
   Atom   13 Element H  Has Mass    1.00783
   Atom   14 Element C  Has Mass   12.00000
   Atom   15 Element H  Has Mass    1.00783
   Atom   16 Element C  Has Mass   12.00000
   Atom   17 Element H  Has Mass    1.00783
   Molecular Mass:   139.039540 amu
   Principal axes and moments of inertia in amu*Bohr^2:
                             1           2           3
    Eigenvalues --      599.05636  2201.30736  2351.47835
          X               0.71787     0.31461    -0.62103
          Y               0.69612    -0.31359     0.64581
          Z              -0.00843     0.89593     0.44412
   Rotational Symmetry Number is   1
   The Molecule is an Asymmetric Top
   Translational Enthalpy:        0.889 kcal/mol
   Rotational Enthalpy:           0.889 kcal/mol
   Vibrational Enthalpy:         81.467 kcal/mol
   gas constant (RT):             0.592 kcal/mol
   Translational Entropy:        40.700  cal/mol.K
   Rotational Entropy:           29.518  cal/mol.K
   Vibrational Entropy:          21.655  cal/mol.K

   Total Enthalpy:               83.837 kcal/mol
   Total Entropy:                91.874  cal/mol.K
 Total job time:  30599.86s(wall), 236677.64s(cpu)
        *  Thank you very much for using Q-Chem.  Have a nice day.  *
