 Q-Chem 5.4, Q-Chem, Inc., Pleasanton, CA (2021)
 Q-Chem 5.4.1 for Intel X86 EM64T Linux

User input:
--------------------------------------------------------------
$molecule
0 2
C   -0.7312401    2.0609455    4.0165486
H   -1.4644041    2.4626843    3.3180064
O   -1.1472525    1.4122920    5.0459689
H   -1.0450516    0.2824744    4.6521160
O   -0.3720209    0.5048215    2.9230497
O   -0.7018863   -0.4310643    3.7310938
C    0.5943206    2.6949575    4.0003450
C    0.8825639    3.6197469    3.0038340
H    0.1247171    3.8677238    2.2727522
C    2.1323565    4.2172033    2.9600789
H    2.3610620    4.9393537    2.1901305
C    3.0876937    3.8852650    3.9104620
H    4.0616047    4.3525394    3.8785780
C    2.7988271    2.9578327    4.9055650
H    3.5475827    2.7047407    5.6418890
C    1.5519735    2.3599048    4.9524309
H    1.3104871    1.6381178    5.7193105
$end

$rem
BASIS = 6-311++G(2df,2p)
GUI = 2
JOB_TYPE = Frequency
METHOD = wB97M-V
SOLVENT_METHOD = SMD
SCF_ALGORITHM = DIIS_GDM
MAX_SCF_CYCLES = 400
SCF_CONVERGENCE = 6
THRESH = 11
SYMMETRY_IGNORE = 1
$end

--------------------------------------------------------------

   20    -496.4808558450      2.91e-07  Convergence criterion met
 Total energy in the final basis set =     -496.4754776558
   14    -496.4808520841      8.56e-07  Convergence criterion met
 Total energy in the final basis set =     -496.4754768687
   15    -496.4808575590      5.78e-07  Convergence criterion met
 Total energy in the final basis set =     -496.4754763995
   14    -496.4808503312      8.97e-07  Convergence criterion met
 Total energy in the final basis set =     -496.4754737056
   14    -496.4808599708      8.84e-07  Convergence criterion met
 Total energy in the final basis set =     -496.4754802291
   14    -496.4808566203      9.30e-07  Convergence criterion met
 Total energy in the final basis set =     -496.4754742691
   15    -496.4808532434      4.91e-07  Convergence criterion met
 Total energy in the final basis set =     -496.4754792420
   14    -496.4808543497      9.30e-07  Convergence criterion met
   15    -496.4808562404      4.70e-07  Convergence criterion met
 Total energy in the final basis set =     -496.4754778921
   15    -496.4808568633      4.67e-07  Convergence criterion met
 Total energy in the final basis set =     -496.4754785215
   15    -496.4808541046      4.70e-07  Convergence criterion met
 Total energy in the final basis set =     -496.4754760667
 Frequency:     -1005.22                  44.12                  69.14
 Force Cnst:      0.7788                 0.0058                 0.0219
 Red. Mass:       1.3081                 5.0647                 7.7925
 IR Intens:      636.284                  0.567                  0.609
 Frequency:       141.12                 218.89                 257.71
 Force Cnst:      0.0783                 0.1619                 0.2672
 Red. Mass:       6.6771                 5.7344                 6.8279
 IR Intens:        0.825                 26.299                 60.092
 Frequency:       406.38                 411.11                 419.02
 Force Cnst:      0.5388                 0.3134                 0.3866
 Red. Mass:       5.5373                 3.1475                 3.7372
 IR Intens:      190.235                 48.934                126.242
 Frequency:       537.53                 616.23                 624.20
 Force Cnst:      0.5547                 1.2850                 1.4554
 Red. Mass:       3.2587                 5.7434                 6.3397
 IR Intens:      261.690                 31.420                  4.102
 Frequency:       676.06                 708.07                 725.66
 Force Cnst:      1.6067                 0.5517                 3.6565
 Red. Mass:       5.9664                 1.8676                11.7855
 IR Intens:       56.945                 62.585                 19.220
 Frequency:       782.48                 851.31                 874.59
 Force Cnst:      0.6029                 1.9324                 0.5638
 Red. Mass:       1.6714                 4.5256                 1.2510
 IR Intens:       45.576                 58.584                  0.109
 Frequency:       965.18                 996.04                1018.50
 Force Cnst:      0.7469                 0.6330                 0.8454
 Red. Mass:       1.3608                 1.0829                 1.3832
 IR Intens:        6.849                108.087                  0.225
 Frequency:      1020.82                1040.38                1052.28
 Force Cnst:      3.5922                 0.8543                 1.3355
 Red. Mass:       5.8508                 1.3396                 2.0470
 IR Intens:        1.741                  0.091                 13.101
 Frequency:      1099.90                1102.93                1163.06
 Force Cnst:      0.9576                 1.0103                 0.9002
 Red. Mass:       1.3435                 1.4096                 1.1294
 IR Intens:      121.219                 49.630                  3.556
 Frequency:      1178.53                1239.31                1321.03
 Force Cnst:      0.9192                 2.6092                 3.6535
 Red. Mass:       1.1233                 2.8834                 3.5533
 IR Intens:       14.180                 89.100                 23.998
 Frequency:      1341.46                1345.50                1357.68
 Force Cnst:      1.7671                14.6801                 1.6207
 Red. Mass:       1.6667                13.7630                 1.4923
 IR Intens:       14.332                155.794                154.199
 Frequency:      1477.91                1528.84                1550.06
 Force Cnst:      3.1794                 3.2847                 4.4006
 Red. Mass:       2.4706                 2.3852                 3.1086
 IR Intens:      136.857                140.161                353.510
 Frequency:      1665.41                1676.37                1864.74
 Force Cnst:     10.1146                10.1081                 2.1313
 Red. Mass:       6.1895                 6.1049                 1.0403
 IR Intens:       10.331                 39.376                144.333
 Frequency:      3112.22                3197.73                3203.86
 Force Cnst:      6.2181                 6.5578                 6.5827
 Red. Mass:       1.0896                 1.0885                 1.0884
 IR Intens:       47.807                  2.896                  1.623
 Frequency:      3212.42                3220.94                3226.98
 Force Cnst:      6.6323                 6.6947                 6.7415
 Red. Mass:       1.0908                 1.0953                 1.0988
 IR Intens:        8.734                 20.975                 14.283

 STANDARD THERMODYNAMIC QUANTITIES AT   298.15 K  AND     1.00 ATM

   This Molecule has  1 Imaginary Frequencies
   Zero point vibrational energy:       77.974 kcal/mol

   Atom    1 Element C  Has Mass   12.00000
   Atom    2 Element H  Has Mass    1.00783
   Atom    3 Element O  Has Mass   15.99491
   Atom    4 Element H  Has Mass    1.00783
   Atom    5 Element O  Has Mass   15.99491
   Atom    6 Element O  Has Mass   15.99491
   Atom    7 Element C  Has Mass   12.00000
   Atom    8 Element C  Has Mass   12.00000
   Atom    9 Element H  Has Mass    1.00783
   Atom   10 Element C  Has Mass   12.00000
   Atom   11 Element H  Has Mass    1.00783
   Atom   12 Element C  Has Mass   12.00000
   Atom   13 Element H  Has Mass    1.00783
   Atom   14 Element C  Has Mass   12.00000
   Atom   15 Element H  Has Mass    1.00783
   Atom   16 Element C  Has Mass   12.00000
   Atom   17 Element H  Has Mass    1.00783
   Molecular Mass:   139.039540 amu
   Principal axes and moments of inertia in amu*Bohr^2:
                             1           2           3
    Eigenvalues --      606.02479  2176.27299  2315.63342
          X               0.71528     0.34647    -0.60691
          Y               0.69869    -0.33660     0.63129
          Z              -0.01444     0.87559     0.48284
   Rotational Symmetry Number is   1
   The Molecule is an Asymmetric Top
   Translational Enthalpy:        0.889 kcal/mol
   Rotational Enthalpy:           0.889 kcal/mol
   Vibrational Enthalpy:         81.494 kcal/mol
   gas constant (RT):             0.592 kcal/mol
   Translational Entropy:        40.700  cal/mol.K
   Rotational Entropy:           29.503  cal/mol.K
   Vibrational Entropy:          22.214  cal/mol.K

   Total Enthalpy:               83.864 kcal/mol
   Total Entropy:                92.417  cal/mol.K
 Total job time:  21186.98s(wall), 163999.91s(cpu)
        *  Thank you very much for using Q-Chem.  Have a nice day.  *
 Q-Chem 5.4, Q-Chem, Inc., Pleasanton, CA (2021)
 Q-Chem 5.4.1 for Intel X86 EM64T Linux

User input:
--------------------------------------------------------------

$rem
JOBTYPE = ts
SCF_GUESS = read
GEOM_OPT_HESSIAN = read
MAX_SCF_CYCLES = 350
GEOM_OPT_DMAX = 60
GEOM_OPT_MAX_CYCLES = 250
METHOD = wB97M-v
BASIS = 6-311++G(2df,2p)
SCF_CONVERGENCE = 7
THRESH = 12
SCF_ALGORITHM = DIIS_GDM
solvent_method = SMD
UNRESTRICTED = 1
$end

$molecule
read
$end
--------------------------------------------------------------

   18    -496.4808558408      2.45e-08  Convergence criterion met
 Total energy in the final basis set =     -496.4754776517
   19    -496.4809256636      5.18e-08  Convergence criterion met
 Total energy in the final basis set =     -496.4755437991
   19    -496.4809578886      4.99e-08  Convergence criterion met
 Total energy in the final basis set =     -496.4755722780

             Standard Nuclear Orientation (Angstroms)
    I     Atom           X                Y                Z
 ----------------------------------------------------------------
    1      C      -0.7201402186     2.0448957642     4.0231699867
    2      H      -1.4580268831     2.4599965653     3.3352469222
    3      O      -1.1347987887     1.3968905963     5.0529047004
    4      H      -1.0853854203     0.2580659415     4.6273189032
    5      O      -0.4027132150     0.5053860992     2.9154369428
    6      O      -0.7731511566    -0.4350421755     3.7013598647
    7      C       0.6084382456     2.6835137113     4.0028404239
    8      C       0.8919488057     3.6074948117     3.0021957041
    9      H       0.1345503733     3.8483470080     2.2668357283
   10      C       2.1370828179     4.2168942270     2.9571673580
   11      H       2.3598071872     4.9374858780     2.1826387176
   12      C       3.0943657437     3.9004296314     3.9119432417
   13      H       4.0645910627     4.3774550585     3.8796403668
   14      C       2.8107085943     2.9765454455     4.9127269910
   15      H       3.5595736810     2.7357970539     5.6545137122
   16      C       1.5686031113     2.3660706888     4.9603427378
   17      H       1.3358794597     1.6493126947     5.7358770986
 ----------------------------------------------------------------

   18    -496.4809596442      3.08e-08  Convergence criterion met
 Total energy in the final basis set =     -496.4755729070
 Final energy is   -496.475572906999
 **  OPTIMIZATION CONVERGED  **

                    Orbital Energies (a.u.)
 --------------------------------------------------------------

 Alpha MOs
 -- Occupied --
-19.4495 -19.4472 -19.3410 -10.4581 -10.3597 -10.3544 -10.3530 -10.3516
-10.3487 -10.3486  -1.3625  -1.1844  -0.9990  -0.9750  -0.8951  -0.8784
 -0.7809  -0.7318  -0.7089  -0.6973  -0.6465  -0.6261  -0.6196  -0.5939
 -0.5736  -0.5434  -0.5421  -0.5281  -0.5016  -0.4753  -0.4592  -0.4443
 -0.4302  -0.4159  -0.3836  -0.3541  -0.3482

 Beta MOs
 -- Occupied --
-19.4331 -19.4329 -19.3410 -10.4584 -10.3595 -10.3544 -10.3531 -10.3516
-10.3487 -10.3486  -1.3342  -1.1835  -0.9976  -0.9395  -0.8915  -0.8784
 -0.7794  -0.7314  -0.6990  -0.6964  -0.6398  -0.6056  -0.5953  -0.5741
 -0.5495  -0.5424  -0.5302  -0.5257  -0.4988  -0.4697  -0.4585  -0.4443
 -0.4164  -0.3943  -0.3542  -0.3445

          Ground-State Mulliken Net Atomic Charges

     Atom                 Charge (a.u.)    Spin (a.u.)
  --------------------------------------------------------
      1 C                    -0.540814      -0.041680
      2 H                     0.327446       0.004333
      3 O                    -0.463222       0.001510
      4 H                     0.370963      -0.009321
      5 O                    -0.050678       0.555289
      6 O                    -0.129452       0.471022
      7 C                     0.873008       0.017394
      8 C                    -0.912217       0.002006
      9 H                     0.265975       0.000696
     10 C                    -0.371443      -0.000485
     11 H                     0.285462      -0.000249
     12 C                    -0.315636       0.000393
     13 H                     0.281150       0.000202
     14 C                    -0.405807      -0.000543
     15 H                     0.283266      -0.000151
     16 C                     0.224463      -0.000759
     17 H                     0.277536       0.000343
  --------------------------------------------------------
  Sum of atomic charges =     0.000000

                    Cartesian Multipole Moments
 -----------------------------------------------------------------
    Charge (ESU x 10^10)
                 0.0000
    Dipole Moment (Debye)
         X       1.7272      Y       2.8456      Z      -0.9913
       Tot       3.4732
    Quadrupole Moments (Debye-Ang)
        XX     -50.9506     XY       6.6288     YY     -47.3565
        XZ      11.3069     YZ       2.4916     ZZ     -66.7474

 Total job time:  1089.98s(wall), 8473.90s(cpu)
        *  Thank you very much for using Q-Chem.  Have a nice day.  *
