 Q-Chem 5.4, Q-Chem, Inc., Pleasanton, CA (2021)
 Q-Chem 5.4.1 for Intel X86 EM64T Linux

User input:
--------------------------------------------------------------
$molecule
0 2
H        -0.3959918647    1.4802768540   -2.2254405216
C        -0.6330789464    1.4333386587   -1.1755726010
H        -0.7385317946    2.3045390246   -0.5483952914
O        -0.3514039547    0.2297209348   -0.5842410638
H        -0.5017423395    0.2985370278    0.3652896777
$end

$rem
BASIS = 6-311++G(2df,2p)
GUI = 2
JOB_TYPE = Frequency
METHOD = wB97M-V
SOLVENT_METHOD = SMD
SCF_ALGORITHM = DIIS_GDM
MAX_SCF_CYCLES = 400
SCF_CONVERGENCE = 7
THRESH = 12
UNRESTRICTED = 1
SYMMETRY_IGNORE = 1
$end
--------------------------------------------------------------

   14    -115.0617959988      3.64e-08  Convergence criterion met
 Total energy in the final basis set =     -115.0557082813
   12    -115.0617959412      2.96e-08  Convergence criterion met
 Total energy in the final basis set =     -115.0557082744
   12    -115.0617959715      3.09e-08  Convergence criterion met
 Total energy in the final basis set =     -115.0557082034
   12    -115.0617959136      2.95e-08  Convergence criterion met
 Total energy in the final basis set =     -115.0557082063
   12    -115.0617958890      3.02e-08  Convergence criterion met
 Total energy in the final basis set =     -115.0557081617
   12    -115.0617956017      2.97e-08  Convergence criterion met
 Total energy in the final basis set =     -115.0557076574
   12    -115.0617951312      3.05e-08  Convergence criterion met
 Total energy in the final basis set =     -115.0557076354
   12    -115.0617981063      3.04e-08  Convergence criterion met
 Total energy in the final basis set =     -115.0557071902
   12    -115.0617992326      3.04e-08  Convergence criterion met
 Total energy in the final basis set =     -115.0557071023
   12    -115.0617960441      3.00e-08  Convergence criterion met
 Total energy in the final basis set =     -115.0557082048
   12    -115.0617958826      3.00e-08  Convergence criterion met
 Total energy in the final basis set =     -115.0557082868
   12    -115.0617953072      3.01e-08  Convergence criterion met
 Total energy in the final basis set =     -115.0557081902
   12    -115.0617965115      3.01e-08  Convergence criterion met
 Total energy in the final basis set =     -115.0557081930
   12    -115.0617957912      3.03e-08  Convergence criterion met
 Total energy in the final basis set =     -115.0557073264
   12    -115.0617943749      2.99e-08  Convergence criterion met
 Total energy in the final basis set =     -115.0557074049

                    Orbital Energies (a.u.)
 --------------------------------------------------------------

 Alpha MOs
 -- Occupied --
-19.3666 -10.3803  -1.1861  -0.7860  -0.6373  -0.5610  -0.5119  -0.4664
 -0.2698

 Beta MOs
 -- Occupied --
-19.3616 -10.3679  -1.1744  -0.7598  -0.6254  -0.5492  -0.4707  -0.4566

          Ground-State Mulliken Net Atomic Charges

     Atom                 Charge (a.u.)    Spin (a.u.)
  --------------------------------------------------------
      1 H                     0.173570      -0.018108
      2 C                    -0.374554       0.939275
      3 H                     0.186366      -0.017132
      4 O                    -0.324579       0.099308
      5 H                     0.339197      -0.003343
  --------------------------------------------------------
  Sum of atomic charges =     0.000000

                    Cartesian Multipole Moments
 -----------------------------------------------------------------
    Charge (ESU x 10^10)
                -0.0000
    Dipole Moment (Debye)
         X      -0.0827      Y       1.1132      Z       1.7108
       Tot       2.0428
    Quadrupole Moments (Debye-Ang)
        XX     -15.0248     XY      -0.3533     YY     -11.7498
        XZ      -1.4824     YZ      -0.2527     ZZ     -12.0020

             Standard Nuclear Orientation (Angstroms)
    I     Atom           X                Y                Z
 ----------------------------------------------------------------
    1      H      -0.3959918647     1.4802768540    -2.2254405216
    2      C      -0.6330789464     1.4333386587    -1.1755726010
    3      H      -0.7385317946     2.3045390246    -0.5483952914
    4      O      -0.3514039547     0.2297209348    -0.5842410638
    5      H      -0.5017423395     0.2985370278     0.3652896777
 ----------------------------------------------------------------

 Frequency:       395.58                 474.02                1045.58
 Force Cnst:      0.1180                 0.1436                 0.7097
 Red. Mass:       1.2795                 1.0850                 1.1018
 IR Intens:       14.790                279.898                 97.666
 Frequency:      1151.74                1347.73                1456.30
 Force Cnst:      4.2396                 1.3542                 1.4167
 Red. Mass:       5.4246                 1.2654                 1.1338
 IR Intens:      182.116                 56.716                  6.801
 Frequency:      3165.86                3312.19                3825.55
 Force Cnst:      6.1584                 7.2976                 9.1954
 Red. Mass:       1.0429                 1.1290                 1.0664
 IR Intens:       19.569                  5.815                178.926

 STANDARD THERMODYNAMIC QUANTITIES AT   298.15 K  AND     1.00 ATM

   This Molecule has  0 Imaginary Frequencies
   Zero point vibrational energy:       23.123 kcal/mol

   Atom    1 Element H  Has Mass    1.00783
   Atom    2 Element C  Has Mass   12.00000
   Atom    3 Element H  Has Mass    1.00783
   Atom    4 Element O  Has Mass   15.99491
   Atom    5 Element H  Has Mass    1.00783
   Molecular Mass:    31.018400 amu
   Principal axes and moments of inertia in amu*Bohr^2:
                             1           2           3
    Eigenvalues --        9.34264    60.51142    69.53849
          X              -0.16781    -0.20063     0.96519
          Y               0.85980     0.44918     0.24286
          Z              -0.48227     0.87062     0.09712
   Rotational Symmetry Number is   1
   The Molecule is an Asymmetric Top
   Translational Enthalpy:        0.889 kcal/mol
   Rotational Enthalpy:           0.889 kcal/mol
   Vibrational Enthalpy:         23.514 kcal/mol
   gas constant (RT):             0.592 kcal/mol
   Translational Entropy:        36.229  cal/mol.K
   Rotational Entropy:           18.314  cal/mol.K
   Vibrational Entropy:           1.870  cal/mol.K

   Total Enthalpy:               25.884 kcal/mol
   Total Entropy:                56.413  cal/mol.K
 Total job time:  279.44s(wall), 2130.01s(cpu)
        *  Thank you very much for using Q-Chem.  Have a nice day.  *
