 Q-Chem 5.4, Q-Chem, Inc., Pleasanton, CA (2021)
 Q-Chem 5.4.1 for Intel X86 EM64T Linux

User input:
--------------------------------------------------------------
$molecule
0 2
H        -0.3865599803    1.4843529417   -2.2197237741
C        -0.6742576225    1.4237334567   -1.1766788299
H        -0.7199138157    2.3094908883   -0.5511806113
O        -0.3293509477    0.2293607057   -0.5860031047
H        -0.5106665338    0.2994745075    0.3652265199
$end

$rem
BASIS = 6-311++G(2df,2p)
GUI = 2
JOB_TYPE = Optimization
METHOD = wB97M-V
SCF_ALGORITHM = DIIS_GDM
MAX_SCF_CYCLES = 400
GEOM_OPT_MAX_CYCLES = 150
SCF_CONVERGENCE = 7
THRESH = 12
UNRESTRICTED = 1
Solvent_method = SMD
$end
--------------------------------------------------------------

   14    -115.0614335332      3.95e-08  Convergence criterion met
 Total energy in the final basis set =     -115.0554232790
   12    -115.0617134354      3.70e-08  Convergence criterion met
 Total energy in the final basis set =     -115.0556603955
   12    -115.0617865969      3.27e-08  Convergence criterion met
 Total energy in the final basis set =     -115.0556985121
   12    -115.0618001285      3.04e-08  Convergence criterion met
 Total energy in the final basis set =     -115.0557065728
   12    -115.0617981792      3.02e-08  Convergence criterion met
 Total energy in the final basis set =     -115.0557081262

             Standard Nuclear Orientation (Angstroms)
    I     Atom           X                Y                Z
 ----------------------------------------------------------------
    1      H      -0.3959918647     1.4802768540    -2.2254405216
    2      C      -0.6330789464     1.4333386587    -1.1755726010
    3      H      -0.7385317946     2.3045390246    -0.5483952914
    4      O      -0.3514039547     0.2297209348    -0.5842410638
    5      H      -0.5017423395     0.2985370278     0.3652896777
 ----------------------------------------------------------------

   12    -115.0617959988      2.99e-08  Convergence criterion met
 Total energy in the final basis set =     -115.0557082814
 Final energy is   -115.055708281353
 **  OPTIMIZATION CONVERGED  **

                    Orbital Energies (a.u.)
 --------------------------------------------------------------

 Alpha MOs
 -- Occupied --
-19.3667 -10.3803  -1.1859  -0.7859  -0.6372  -0.5610  -0.5119  -0.4663
 -0.2698

 Beta MOs
 -- Occupied --
-19.3616 -10.3679  -1.1742  -0.7597  -0.6253  -0.5491  -0.4706  -0.4566

          Ground-State Mulliken Net Atomic Charges

     Atom                 Charge (a.u.)    Spin (a.u.)
  --------------------------------------------------------
      1 H                     0.173561      -0.018106
      2 C                    -0.374581       0.939235
      3 H                     0.186386      -0.017136
      4 O                    -0.324929       0.099364
      5 H                     0.339563      -0.003356
  --------------------------------------------------------
  Sum of atomic charges =    -0.000000

                    Cartesian Multipole Moments
 -----------------------------------------------------------------
    Charge (ESU x 10^10)
                -0.0000
    Dipole Moment (Debye)
         X      -0.0825      Y       1.1128      Z       1.7127
       Tot       2.0442
    Quadrupole Moments (Debye-Ang)
        XX     -15.0263     XY      -0.3530     YY     -11.7517
        XZ      -1.4835     YZ      -0.2517     ZZ     -12.0012

 Total job time:  54.36s(wall), 416.31s(cpu)
        *  Thank you very much for using Q-Chem.  Have a nice day.  *
