 Q-Chem 5.4, Q-Chem, Inc., Pleasanton, CA (2021)
 Q-Chem 5.4.2 for Intel X86 EM64T Linux

User input:
--------------------------------------------------------------
$molecule
-1 1
O        -0.0865066894    1.6185407646    1.5964500342
H         0.1190936141    0.7222267023    1.9020375166
H        -1.2185692190    1.2778206660    0.7683841030
O        -2.0623791819    1.0081465844    0.1703591447
H        -2.7740234238    0.9723804827    0.8259402015
$end

$rem
BASIS = 6-311++G(2df,2p)
GUI = 2
JOB_TYPE = Optimization
METHOD = wB97M-V
SCF_ALGORITHM = DIIS_GDM
MAX_SCF_CYCLES = 400
GEOM_OPT_MAX_CYCLES = 150
SCF_CONVERGENCE = 7
THRESH = 12
Solvent_method = SMD
$end
--------------------------------------------------------------

   11    -152.4010383392      2.42e-08  Convergence criterion met
 Total energy in the final basis set =     -152.3985359527
   12    -152.4015038179      3.44e-08  Convergence criterion met
 Total energy in the final basis set =     -152.3989937925
   12    -152.4018645816      3.49e-08  Convergence criterion met
 Total energy in the final basis set =     -152.3993287147
   12    -152.4020497938      3.52e-08  Convergence criterion met
 Total energy in the final basis set =     -152.3994912541
   12    -152.4022006876      3.60e-08  Convergence criterion met
 Total energy in the final basis set =     -152.3996198443
   12    -152.4022386085      3.71e-08  Convergence criterion met
 Total energy in the final basis set =     -152.3996502997
   12    -152.4022444305      3.76e-08  Convergence criterion met
 Total energy in the final basis set =     -152.3996551043
   12    -152.4022496840      3.76e-08  Convergence criterion met
 Total energy in the final basis set =     -152.3996601618
   12    -152.4022523097      3.77e-08  Convergence criterion met
 Total energy in the final basis set =     -152.3996635118

             Standard Nuclear Orientation (Angstroms)
    I     Atom           X                Y                Z
 ----------------------------------------------------------------
    1      O      -0.0612915052     1.5814178774     1.6175758658
    2      H       0.2938154751     0.7589219487     1.9651003215
    3      H      -1.2960914973     1.2276929368     0.7663119279
    4      O      -2.1004753447     1.0325894002     0.1620338869
    5      H      -2.8583420279     0.9984930369     0.7521489978
 ----------------------------------------------------------------

   12    -152.4022524365      3.77e-08  Convergence criterion met
 Total energy in the final basis set =     -152.3996642079
 Final energy is   -152.399664207912
 **  OPTIMIZATION CONVERGED  **

                    Orbital Energies (a.u.)
 --------------------------------------------------------------

 Alpha MOs
 -- Occupied --
-19.2947 -19.2386  -1.0977  -1.0047  -0.6023  -0.4958  -0.4670  -0.4018
 -0.3488  -0.3440

          Ground-State Mulliken Net Atomic Charges

     Atom                 Charge (a.u.)
  ----------------------------------------
      1 O                    -1.196489
      2 H                     0.293574
      3 H                     0.391853
      4 O                    -0.805441
      5 H                     0.316502
  ----------------------------------------
  Sum of atomic charges =    -1.000000

                    Cartesian Multipole Moments
 -----------------------------------------------------------------
    Charge (ESU x 10^10)
                -4.8032
    Dipole Moment (Debye)
         X       2.1194      Y      -8.5253      Z      -3.8931
       Tot       9.6088
    Quadrupole Moments (Debye-Ang)
        XX     -16.9962     XY       1.5589     YY     -30.9303
        XZ      -3.5604     YZ     -10.6500     ZZ     -23.8316

 Total job time:  109.97s(wall), 404.81s(cpu)
        *  Thank you very much for using Q-Chem.  Have a nice day.  *
