 Q-Chem 5.4, Q-Chem, Inc., Pleasanton, CA (2021)
 Q-Chem 5.4.1 for Intel X86 EM64T Linux

User input:
--------------------------------------------------------------
$molecule
0 2
C        -1.1842358552    0.2177847230    0.8498135652
O        -1.4599085590    1.1580347255   -0.2102182900
O        -0.1549760569    1.6715134026   -0.6417252546
C         0.0146547178    0.8659133810    1.5259816276
O        -0.3246038574    2.0489689200    2.2167165251
C         0.8192277483    1.1311857166    0.2640519542
C         1.3715963692   -0.1647052023   -0.3197902282
O         1.8440613917   -1.0779311981    0.6238431996
C         0.3623859534   -1.2483944255   -0.4161622367
C        -0.8401078891   -1.1078443891    0.2405291943
H        -2.0772629875    0.1997492249    1.4671191791
H         0.5194358042    0.2050902616    2.2190132942
H        -0.7870798579    2.6418973218    1.6116818853
H         1.5822216222    1.8948570134    0.3949509249
H         2.0111201184   -0.0163349833   -1.1869240021
H         0.5873555261   -2.1066877796   -1.0271664362
H        -1.5853735883   -1.8889600122    0.2063345983
$end

$rem
BASIS = 6-311++G(2df,2p)
GUI = 2
JOB_TYPE = Frequency
METHOD = wB97M-V
SOLVENT_METHOD = SMD
SCF_ALGORITHM = DIIS_GDM
MAX_SCF_CYCLES = 400
SCF_CONVERGENCE = 7
THRESH = 12
$end

--------------------------------------------------------------

   21    -533.5650782794      5.78e-08  Convergence criterion met
 Total energy in the final basis set =     -533.5616855360
   19    -533.5650767667      6.01e-08  Convergence criterion met
 Total energy in the final basis set =     -533.5616844050
   19    -533.5650775598      5.91e-08  Convergence criterion met
 Total energy in the final basis set =     -533.5616844293
   19    -533.5650778561      5.93e-08  Convergence criterion met
 Total energy in the final basis set =     -533.5616847293
   19    -533.5650771108      6.08e-08  Convergence criterion met
 Total energy in the final basis set =     -533.5616847476
   19    -533.5650775126      5.97e-08  Convergence criterion met
 Total energy in the final basis set =     -533.5616847582
   19    -533.5650774715      5.90e-08  Convergence criterion met
 Total energy in the final basis set =     -533.5616847362
   19    -533.5650779291      6.04e-08  Convergence criterion met
 Frequency:      -443.04                 140.31                 189.58
 Force Cnst:      1.2362                 0.0667                 0.1224
 Red. Mass:      10.6890                 5.7483                 5.7812
 IR Intens:        3.864                  1.375                  4.037
 Frequency:       245.05                 272.57                 278.12
 Force Cnst:      0.1154                 0.1066                 0.1180
 Red. Mass:       3.2612                 2.4360                 2.5894
 IR Intens:       70.214                 85.612                 29.935
 Frequency:       350.19                 423.58                 452.25
 Force Cnst:      0.2882                 0.3630                 0.4096
 Red. Mass:       3.9889                 3.4336                 3.3992
 IR Intens:       99.161                 15.131                  5.959
 Frequency:       497.91                 582.02                 728.94
 Force Cnst:      0.8935                 1.2034                 0.7234
 Red. Mass:       6.1168                 6.0295                 2.3107
 IR Intens:        4.737                  2.136                 32.254
 Frequency:       741.53                 796.90                 852.41
 Force Cnst:      1.5754                 1.3263                 1.8953
 Red. Mass:       4.8627                 3.5448                 4.4271
 IR Intens:        4.448                 28.073                 33.339
 Frequency:       868.75                 874.45                 910.79
 Force Cnst:      2.6326                 1.0719                 1.4347
 Red. Mass:       5.9204                 2.3791                 2.9354
 IR Intens:       98.900                 23.617                 11.991
 Frequency:       962.03                 980.52                 992.49
 Force Cnst:      1.0539                 1.9667                 1.8926
 Red. Mass:       1.9328                 3.4719                 3.2611
 IR Intens:       19.511                  1.125                 57.214
 Frequency:      1013.78                1057.41                1059.01
 Force Cnst:      1.0691                 1.2179                 1.1401
 Red. Mass:       1.7656                 1.8487                 1.7254
 IR Intens:        8.689                 18.126                 10.282
 Frequency:      1139.37                1159.52                1220.76
 Force Cnst:      0.8576                 2.0895                 1.2305
 Red. Mass:       1.1213                 2.6377                 1.4014
 IR Intens:        1.909                123.371                201.150
 Frequency:      1231.16                1255.51                1269.49
 Force Cnst:      1.2755                 1.4760                 1.7556
 Red. Mass:       1.4282                 1.5892                 1.8490
 IR Intens:       32.191                  5.452                  7.999
 Frequency:      1276.77                1320.13                1330.87
 Force Cnst:      1.5568                 1.5894                 1.5184
 Red. Mass:       1.6209                 1.5479                 1.4550
 IR Intens:        4.723                  7.977                 34.555
 Frequency:      1364.66                1378.64                1418.26
 Force Cnst:      1.8081                 1.6724                 3.7364
 Red. Mass:       1.6479                 1.4935                 3.1528
 IR Intens:        0.167                 11.761                 62.212
 Frequency:      1456.14                1469.92                3119.34
 Force Cnst:      3.0422                 2.9908                 6.2403
 Red. Mass:       2.4352                 2.3494                 1.0885
 IR Intens:       71.793                127.715                 33.812
 Frequency:      3139.78                3160.48                3190.60
 Force Cnst:      6.3230                 6.4094                 6.5349
 Red. Mass:       1.0886                 1.0891                 1.0895
 IR Intens:        9.160                  3.708                  1.814
 Frequency:      3222.22                3256.92                3804.35
 Force Cnst:      6.6669                 6.8432                 9.0932
 Red. Mass:       1.0898                 1.0949                 1.0664
 IR Intens:        3.318                  2.116                120.963

 STANDARD THERMODYNAMIC QUANTITIES AT   298.15 K  AND     1.00 ATM

   This Molecule has  1 Imaginary Frequencies
   Zero point vibrational energy:       80.707 kcal/mol

   Atom    1 Element C  Has Mass   12.00000
   Atom    2 Element O  Has Mass   15.99491
   Atom    3 Element O  Has Mass   15.99491
   Atom    4 Element C  Has Mass   12.00000
   Atom    5 Element O  Has Mass   15.99491
   Atom    6 Element C  Has Mass   12.00000
   Atom    7 Element C  Has Mass   12.00000
   Atom    8 Element O  Has Mass   15.99491
   Atom    9 Element C  Has Mass   12.00000
   Atom   10 Element C  Has Mass   12.00000
   Atom   11 Element H  Has Mass    1.00783
   Atom   12 Element H  Has Mass    1.00783
   Atom   13 Element H  Has Mass    1.00783
   Atom   14 Element H  Has Mass    1.00783
   Atom   15 Element H  Has Mass    1.00783
   Atom   16 Element H  Has Mass    1.00783
   Atom   17 Element H  Has Mass    1.00783
   Molecular Mass:   143.034450 amu
   Principal axes and moments of inertia in amu*Bohr^2:
                             1           2           3
    Eigenvalues --      793.98957  1282.19242  1410.21721
          X              -0.51969     0.79643    -0.30922
          Y               0.79454     0.31749    -0.51760
          Z               0.31406     0.51468     0.79779
   Rotational Symmetry Number is   1
   The Molecule is an Asymmetric Top
   Translational Enthalpy:        0.889 kcal/mol
   Rotational Enthalpy:           0.889 kcal/mol
   Vibrational Enthalpy:         83.740 kcal/mol
   gas constant (RT):             0.592 kcal/mol
   Translational Entropy:        40.785  cal/mol.K
   Rotational Entropy:           28.753  cal/mol.K
   Vibrational Entropy:          16.207  cal/mol.K

   Total Enthalpy:               86.110 kcal/mol
   Total Entropy:                85.745  cal/mol.K
 Total job time:  21824.44s(wall), 316674.25s(cpu)
        *  Thank you very much for using Q-Chem.  Have a nice day.  *
 Q-Chem 5.4, Q-Chem, Inc., Pleasanton, CA (2021)
 Q-Chem 5.4.1 for Intel X86 EM64T Linux

User input:
--------------------------------------------------------------

$molecule
read
$end

$rem
JOBTYPE            rpath
SCF_GUESS          read
RPATH_MAX_CYCLES   30
BASIS = 6-311++G(2df,2p)
METHOD = wB97M-V
SOLVENT_METHOD = SMD
SCF_ALGORITHM = DIIS_GDM
SCF_CONVERGENCE = 7
THRESH = 12
$end
--------------------------------------------------------------

 Total energy in the final basis set =     -533.5695232360
   17    -533.5732140419      7.13e-08  Convergence criterion met
 Total energy in the final basis set =     -533.5698630332
   16    -533.5729667941      7.34e-08  Convergence criterion met
 Total energy in the final basis set =     -533.5696167983
   16    -533.5732270608      5.47e-08  Convergence criterion met
 Total energy in the final basis set =     -533.5698770443
   16    -533.5726097846      3.30e-08  Convergence criterion met
 Total energy in the final basis set =     -533.5692327528
   16    -533.5733628358      9.55e-08  Convergence criterion met
 Total energy in the final basis set =     -533.5700062621
   15    -533.5732266441      8.71e-08  Convergence criterion met
 Total energy in the final basis set =     -533.5698683437
   16    -533.5733932881      7.71e-08  Convergence criterion met
 Total energy in the final basis set =     -533.5700367034

                    Orbital Energies (a.u.)
 --------------------------------------------------------------

 Alpha MOs
 -- Occupied --
-19.4054 -19.4045 -19.3638 -19.3486 -10.4094 -10.4090 -10.4085 -10.4066
-10.4064 -10.3688  -1.2737  -1.2166  -1.1694  -1.0681  -0.9518  -0.8720
 -0.8240  -0.7645  -0.7275  -0.7074  -0.6809  -0.6290  -0.6145  -0.6004
 -0.5791  -0.5467  -0.5400  -0.5255  -0.5184  -0.4974  -0.4902  -0.4641
 -0.4507  -0.4335  -0.4097  -0.4003  -0.3615  -0.3134

 Beta MOs
 -- Occupied --
-19.4045 -19.4032 -19.3605 -19.3484 -10.4101 -10.4090 -10.4082 -10.4076
-10.4056 -10.3566  -1.2716  -1.2104  -1.1690  -1.0653  -0.9443  -0.8586
 -0.8204  -0.7617  -0.7222  -0.7012  -0.6789  -0.6241  -0.6092  -0.5964
 -0.5746  -0.5400  -0.5365  -0.5174  -0.5160  -0.4939  -0.4835  -0.4624
 -0.4441  -0.4226  -0.4063  -0.3971  -0.3571

          Ground-State Mulliken Net Atomic Charges

     Atom                 Charge (a.u.)    Spin (a.u.)
  --------------------------------------------------------
      1 C                     0.082119      -0.016080
      2 O                    -0.142658       0.041221
      3 O                    -0.131202       0.003539
      4 C                    -0.329367       0.003213
      5 O                    -0.431071       0.003114
      6 C                    -0.074376      -0.001038
      7 C                    -0.283682       0.063514
      8 O                    -0.282208       0.082529
      9 C                    -0.046614      -0.043860
     10 C                    -0.340524       0.862137
     11 H                     0.283510       0.006934
     12 H                     0.268871      -0.000045
     13 H                     0.340569       0.000101
     14 H                     0.270429       0.000273
     15 H                     0.258870       0.001630
     16 H                     0.248005       0.006204
     17 H                     0.309330      -0.013387
  --------------------------------------------------------
  Sum of atomic charges =    -0.000000

                    Cartesian Multipole Moments
 -----------------------------------------------------------------
    Charge (ESU x 10^10)
                -0.0000
    Dipole Moment (Debye)
         X      -0.2033      Y      -1.7912      Z      -0.8465
       Tot       1.9915
    Quadrupole Moments (Debye-Ang)
        XX     -56.7948     XY       7.0574     YY     -58.6419
        XZ      -6.5580     YZ       1.4330     ZZ     -64.0833

             Standard Nuclear Orientation (Angstroms)
    I     Atom           X                Y                Z
 ----------------------------------------------------------------
    1      C      -1.1842358552     0.2177847230     0.8498135652
    2      O      -1.4599085590     1.1580347255    -0.2102182900
    3      O      -0.1549760569     1.6715134026    -0.6417252546
    4      C       0.0146547178     0.8659133810     1.5259816276
    5      O      -0.3246038574     2.0489689200     2.2167165251
    6      C       0.8192277483     1.1311857166     0.2640519542
    7      C       1.3715963692    -0.1647052023    -0.3197902282
    8      O       1.8440613917    -1.0779311981     0.6238431996
    9      C       0.3623859534    -1.2483944255    -0.4161622367
   10      C      -0.8401078891    -1.1078443891     0.2405291943
   11      H      -2.0772629875     0.1997492249     1.4671191791
   12      H       0.5194358042     0.2050902616     2.2190132942
   13      H      -0.7870798579     2.6418973218     1.6116818853
   14      H       1.5822216222     1.8948570134     0.3949509249
   15      H       2.0111201184    -0.0163349833    -1.1869240021
   16      H       0.5873555261    -2.1066877796    -1.0271664362
   17      H      -1.5853735883    -1.8889600122     0.2063345983
 ----------------------------------------------------------------

 Total job time:  14584.57s(wall), 212108.10s(cpu)
        *  Thank you very much for using Q-Chem.  Have a nice day.  *
