 Q-Chem 5.4, Q-Chem, Inc., Pleasanton, CA (2021)
 Q-Chem 5.4.1 for Intel X86 EM64T Linux

User input:
--------------------------------------------------------------
$molecule
0 2
H    0.4686273    0.9877723    1.6190427
C   -0.1383584    1.1728668    0.7432882
C   -1.2257957    1.9304152    0.8008346
H   -1.6351547    2.2359030    1.7585295
C   -2.0605263    2.1799782   -0.4309189
H   -3.0789131    2.1059972   -0.2822134
C   -1.6093021    1.3060229   -1.6131825
H   -2.1607828    1.5425610   -2.5194981
C   -0.0897682    1.4007382   -1.7466455
H    0.2472093    0.9340344   -2.6708689
C    0.2539379    0.5175230   -0.5550662
H    1.2735996    0.1428130   -0.5641162
O    0.4164406    2.7068847   -1.6083765
H    0.2864742    3.1702683   -2.4436478
O   -1.8386477   -0.0682083   -1.3072658
O   -0.5709407   -0.6223231   -0.8215539
O   -1.1865445    3.3808209   -0.3306863
$end

$rem
BASIS = 6-311++G(2df,2p)
GUI = 2
JOB_TYPE = Frequency
METHOD = wB97M-V
SCF_ALGORITHM = DIIS_GDM
MAX_SCF_CYCLES = 400
SCF_CONVERGENCE = 6
THRESH = 11
solvent_method = SMD
$end

--------------------------------------------------------------

   21    -533.5102202667      2.44e-07  Convergence criterion met
 Total energy in the final basis set =     -533.5066649212
   17    -533.5102169678      6.95e-07  Convergence criterion met
 Total energy in the final basis set =     -533.5066614087
   17    -533.5102230669      7.14e-07  Convergence criterion met
 Total energy in the final basis set =     -533.5066679339
   17    -533.5102167481      6.93e-07  Convergence criterion met
 Total energy in the final basis set =     -533.5066614673
   17    -533.5102236365      7.22e-07  Convergence criterion met
 Total energy in the final basis set =     -533.5066682259
   17    -533.5102211015      6.95e-07  Convergence criterion met
 Total energy in the final basis set =     -533.5066654477
   17    -533.5102185273      6.96e-07  Convergence criterion met
 Total energy in the final basis set =     -533.5066634883
   17    -533.5102972491      7.28e-07  Convergence criterion met
 Frequency:      -443.12                -308.88                 -11.37
 Force Cnst:      1.0580                 0.0659                 0.0003
 Red. Mass:       9.1453                 1.1728                 3.5637
 IR Intens:       11.975                200.351                 44.830
 Frequency:       175.87                 270.26                 308.12
 Force Cnst:      0.1433                 0.1942                 0.3116
 Red. Mass:       7.8643                 4.5120                 5.5707
 IR Intens:        1.572                 21.605                 35.384
 Frequency:       369.60                 423.74                 525.85
 Force Cnst:      0.5306                 0.3222                 0.8727
 Red. Mass:       6.5929                 3.0456                 5.3566
 IR Intens:        5.496                  9.643                 10.771
 Frequency:       549.25                 590.31                 637.04
 Force Cnst:      1.0028                 1.0169                 1.4429
 Red. Mass:       5.6420                 4.9528                 6.0346
 IR Intens:        5.417                  3.073                 21.893
 Frequency:       713.00                 729.98                 786.97
 Force Cnst:      1.2718                 0.8388                 0.8424
 Red. Mass:       4.2462                 2.6717                 2.3085
 IR Intens:       72.990                 13.287                 30.591
 Frequency:       838.59                 857.81                 863.73
 Force Cnst:      0.7773                 2.8424                 1.3356
 Red. Mass:       1.8760                 6.5562                 3.0386
 IR Intens:        9.528                 47.802                  0.786
 Frequency:       901.37                 954.93                 982.67
 Force Cnst:      1.1811                 1.1799                 1.3158
 Red. Mass:       2.4673                 2.1960                 2.3127
 IR Intens:       52.138                 26.969                 24.659
 Frequency:      1002.70                1018.85                1035.55
 Force Cnst:      2.3039                 1.1278                 1.8273
 Red. Mass:       3.8894                 1.8440                 2.8922
 IR Intens:       75.625                  3.243                 10.975
 Frequency:      1045.32                1072.33                1135.32
 Force Cnst:      1.0486                 0.9389                 1.2317
 Red. Mass:       1.6287                 1.3858                 1.6219
 IR Intens:       14.812                 15.716                  4.035
 Frequency:      1211.16                1223.94                1257.83
 Force Cnst:      1.0373                 1.6962                 2.8277
 Red. Mass:       1.2002                 1.9219                 3.0335
 IR Intens:        9.185                 19.896                108.582
 Frequency:      1262.85                1301.79                1316.07
 Force Cnst:      1.4515                 1.2887                 1.6921
 Red. Mass:       1.5447                 1.2907                 1.6581
 IR Intens:       30.669                  3.060                 56.847
 Frequency:      1349.76                1361.33                1396.12
 Force Cnst:      1.6579                 1.8074                 1.7525
 Red. Mass:       1.5446                 1.6553                 1.5260
 IR Intens:       52.073                  1.958                 40.842
 Frequency:      1449.72                1621.41                3098.74
 Force Cnst:      2.2429                 8.3215                 6.1511
 Red. Mass:       1.8113                 5.3724                 1.0873
 IR Intens:       20.094                103.202                 40.383
 Frequency:      3135.10                3151.66                3170.85
 Force Cnst:      6.3011                 6.3745                 6.4605
 Red. Mass:       1.0881                 1.0892                 1.0906
 IR Intens:       16.367                  6.557                  1.501
 Frequency:      3207.77                3673.25                3820.03
 Force Cnst:      6.6431                 8.6506                 9.1737
 Red. Mass:       1.0957                 1.0882                 1.0670
 IR Intens:       11.598                 11.711                138.873

 STANDARD THERMODYNAMIC QUANTITIES AT   298.15 K  AND     1.00 ATM

   This Molecule has  3 Imaginary Frequencies
   Zero point vibrational energy:       79.768 kcal/mol

   Atom    1 Element H  Has Mass    1.00783
   Atom    2 Element C  Has Mass   12.00000
   Atom    3 Element C  Has Mass   12.00000
   Atom    4 Element H  Has Mass    1.00783
   Atom    5 Element C  Has Mass   12.00000
   Atom    6 Element H  Has Mass    1.00783
   Atom    7 Element C  Has Mass   12.00000
   Atom    8 Element H  Has Mass    1.00783
   Atom    9 Element C  Has Mass   12.00000
   Atom   10 Element H  Has Mass    1.00783
   Atom   11 Element C  Has Mass   12.00000
   Atom   12 Element H  Has Mass    1.00783
   Atom   13 Element O  Has Mass   15.99491
   Atom   14 Element H  Has Mass    1.00783
   Atom   15 Element O  Has Mass   15.99491
   Atom   16 Element O  Has Mass   15.99491
   Atom   17 Element O  Has Mass   15.99491
   Molecular Mass:   143.034450 amu
   Principal axes and moments of inertia in amu*Bohr^2:
                             1           2           3
    Eigenvalues --      823.66369  1162.44881  1233.32746
          X              -0.02203    -0.65388     0.75628
          Y               0.98486    -0.14429    -0.09606
          Z               0.17194     0.74271     0.64716
   Rotational Symmetry Number is   1
   The Molecule is an Asymmetric Top
   Translational Enthalpy:        0.889 kcal/mol
   Rotational Enthalpy:           0.889 kcal/mol
   Vibrational Enthalpy:         82.099 kcal/mol
   gas constant (RT):             0.592 kcal/mol
   Translational Entropy:        40.785  cal/mol.K
   Rotational Entropy:           28.559  cal/mol.K
   Vibrational Entropy:          11.675  cal/mol.K

   Total Enthalpy:               84.469 kcal/mol
   Total Entropy:                81.018  cal/mol.K
 Total job time:  35361.90s(wall), 798969.12s(cpu)
        *  Thank you very much for using Q-Chem.  Have a nice day.  *
 Q-Chem 5.4, Q-Chem, Inc., Pleasanton, CA (2021)
 Q-Chem 5.4.1 for Intel X86 EM64T Linux

User input:
--------------------------------------------------------------

$rem
JOBTYPE = ts
SCF_GUESS = read
GEOM_OPT_HESSIAN = read
MAX_SCF_CYCLES = 350
GEOM_OPT_DMAX = 60
GEOM_OPT_MAX_CYCLES = 250
METHOD = wB97M-v
BASIS = 6-311++G(2df,2p)
SCF_CONVERGENCE = 7
THRESH = 12
SCF_ALGORITHM = DIIS_GDM
solvent_method = SMD
$end

$molecule
read
$end
--------------------------------------------------------------

   20    -533.5543094770      4.27e-08  Convergence criterion met
 Total energy in the final basis set =     -533.5507019628
   20    -533.5544285343      4.25e-08  Convergence criterion met
 Total energy in the final basis set =     -533.5508193126
   20    -533.5545551820      4.36e-08  Convergence criterion met
 Total energy in the final basis set =     -533.5509520225
   20    -533.5546626579      4.36e-08  Convergence criterion met
 Total energy in the final basis set =     -533.5510530755
   20    -533.5547144304      4.45e-08  Convergence criterion met
 Total energy in the final basis set =     -533.5511054709
   20    -533.5547343211      4.41e-08  Convergence criterion met
 Total energy in the final basis set =     -533.5511128221

             Standard Nuclear Orientation (Angstroms)
    I     Atom           X                Y                Z
 ----------------------------------------------------------------
    1      H       0.5643351856     1.0791751925     1.5991855334
    2      C      -0.0592235506     1.2354449499     0.7308863522
    3      C      -1.2680417063     1.8891887846     0.8406238885
    4      H      -1.6698649318     2.1938916555     1.7926958364
    5      C      -2.0816217619     2.1231268658    -0.3784005668
    6      H      -3.1617226836     2.0468876914    -0.2623457484
    7      C      -1.5711533067     1.3873676731    -1.6126056913
    8      H      -2.1020025468     1.6792028603    -2.5160800136
    9      C      -0.0452002679     1.3855260551    -1.7762055398
   10      H       0.1910144875     0.8147636343    -2.6753486889
   11      C       0.2720541663     0.5377388971    -0.5570291713
   12      H       1.2646753328     0.0979670165    -0.5693184569
   13      O       0.6498976524     2.6062281815    -1.7540141159
   14      H       0.3809260370     3.1239688342    -2.5208469368
   15      O      -1.8240012324    -0.0075684114    -1.4281339249
   16      O      -0.6451923206    -0.5574847049    -0.7347898011
   17      O      -1.5433238530     3.3886425244    -0.1506179547
 ----------------------------------------------------------------

   20    -533.5547239610      4.71e-08  Convergence criterion met
 Total energy in the final basis set =     -533.5511130892
 Final energy is   -533.551113089183
 **  OPTIMIZATION CONVERGED  **

                    Orbital Energies (a.u.)
 --------------------------------------------------------------

 Alpha MOs
 -- Occupied --
-19.4076 -19.4065 -19.3567 -19.3483 -10.4134 -10.4111 -10.4077 -10.4064
-10.3945 -10.3786  -1.2740  -1.1755  -1.1626  -1.0742  -0.9585  -0.8869
 -0.8277  -0.7656  -0.7306  -0.6959  -0.6708  -0.6315  -0.6059  -0.5841
 -0.5763  -0.5623  -0.5511  -0.5295  -0.5144  -0.4936  -0.4851  -0.4684
 -0.4556  -0.4275  -0.4107  -0.3873  -0.3585  -0.3368

 Beta MOs
 -- Occupied --
-19.4066 -19.4061 -19.3482 -19.3431 -10.4139 -10.4109 -10.4077 -10.4057
-10.3959 -10.3701  -1.2726  -1.1731  -1.1412  -1.0723  -0.9491  -0.8805
 -0.8196  -0.7625  -0.7245  -0.6934  -0.6667  -0.6283  -0.5960  -0.5803
 -0.5716  -0.5554  -0.5451  -0.5224  -0.5095  -0.4921  -0.4722  -0.4555
 -0.4479  -0.4141  -0.3942  -0.3786  -0.3523

          Ground-State Mulliken Net Atomic Charges

     Atom                 Charge (a.u.)    Spin (a.u.)
  --------------------------------------------------------
      1 H                     0.326248      -0.009466
      2 C                    -0.226059       0.589703
      3 C                    -0.269206      -0.132011
      4 H                     0.311016       0.004372
      5 C                    -0.118297       0.083447
      6 H                     0.265408       0.001852
      7 C                    -0.307935      -0.016776
      8 H                     0.278182       0.001021
      9 C                    -0.070044       0.006198
     10 H                     0.296929      -0.001419
     11 C                    -0.068367      -0.021872
     12 H                     0.295052       0.003298
     13 O                    -0.429157      -0.000594
     14 H                     0.341727       0.000066
     15 O                    -0.121058      -0.000664
     16 O                    -0.139659       0.029685
     17 O                    -0.364780       0.463162
  --------------------------------------------------------
  Sum of atomic charges =     0.000000

                    Cartesian Multipole Moments
 -----------------------------------------------------------------
    Charge (ESU x 10^10)
                 0.0000
    Dipole Moment (Debye)
         X       0.6812      Y      -0.2801      Z      -1.1007
       Tot       1.3244
    Quadrupole Moments (Debye-Ang)
        XX     -55.9958     XY      -4.1778     YY     -74.0801
        XZ       1.1410     YZ      -7.6732     ZZ     -43.3822

 Total job time:  10225.45s(wall), 230909.76s(cpu)
        *  Thank you very much for using Q-Chem.  Have a nice day.  *
