 Q-Chem 5.4, Q-Chem, Inc., Pleasanton, CA (2021)
 Q-Chem 5.4.1 for Intel X86 EM64T Linux

User input:
--------------------------------------------------------------
$molecule
0 2
C    0.8711538   -0.1653791    0.1616539
O    0.5791104   -1.4658627    0.6375090
C    2.3763280    0.0794856    0.1265123
O    3.0433695   -0.7893116   -0.7150949
O    2.5298621    1.4831179   -0.3922435
O    2.2877499    1.5462599   -1.6686106
C    3.0157690    0.0974477    1.4841060
C    4.3203900    0.1901204    1.6976170
C    5.3807895    0.2769660    0.6353318
O    6.4807402    0.9355858    1.2061411
O    5.8100247   -1.0233680    0.2485790
H    0.3975181    0.6039928    0.7714560
H    0.4890908   -0.0946533   -0.8563808
H    0.6163495   -1.4618182    1.6000755
H    2.5539263   -0.8685240   -1.5456438
H    2.3382102    0.0271351    2.3251113
H    4.6944927    0.1777724    2.7152753
H    5.0341497    0.8161968   -0.2465638
H    7.0837250    1.1869598    0.4970865
H    5.0951707   -1.4025883   -0.2805771
$end

$rem
BASIS = 6-311++G(2df,2p)
GUI = 2
JOB_TYPE = Frequency
METHOD = wB97M-V
SOLVENT_METHOD = SMD
SCF_ALGORITHM = DIIS_GDM
MAX_SCF_CYCLES = 400
SCF_CONVERGENCE = 7
THRESH = 12
$end
--------------------------------------------------------------

   22    -647.1827190048      9.47e-08  Convergence criterion met
 Total energy in the final basis set =     -647.1769815030
   18    -647.1827159956      6.96e-08  Convergence criterion met
 Total energy in the final basis set =     -647.1769806395
   18    -647.1827202803      7.59e-08  Convergence criterion met
 Total energy in the final basis set =     -647.1769806130
   18    -647.1827172386      7.21e-08  Convergence criterion met
 Total energy in the final basis set =     -647.1769804408
   18    -647.1827188932      6.73e-08  Convergence criterion met
 Total energy in the final basis set =     -647.1769804040
   18    -647.1827178818      7.47e-08  Convergence criterion met
 Total energy in the final basis set =     -647.1769803381
   18    -647.1827178317      7.23e-08  Convergence criterion met
 Total energy in the final basis set =     -647.1769803301
   18    -647.1827196321      7.44e-08  Convergence criterion met
 Total energy in the final basis set =     -647.1769809566
   18    -647.1827186013      7.12e-08  Convergence criterion met
 Total energy in the final basis set =     -647.1769809773
   18    -647.1827185863      7.17e-08  Convergence criterion met
 Total energy in the final basis set =     -647.1769809610
   18    -647.1827184107      7.46e-08  Convergence criterion met
 Total energy in the final basis set =     -647.1769810323
   18    -647.1827180228      7.13e-08  Convergence criterion met
 Total energy in the final basis set =     -647.1769812574
   18    -647.1827195395      7.34e-08  Convergence criterion met
 Total energy in the final basis set =     -647.1769813011
   18    -647.1827182877      7.14e-08  Convergence criterion met
 Total energy in the final basis set =     -647.1769812237
   18    -647.1827191497      7.39e-08  Convergence criterion met
 Total energy in the final basis set =     -647.1769812099

                    Orbital Energies (a.u.)
 --------------------------------------------------------------

 Alpha MOs
 -- Occupied --
-19.4626 -19.4207 -19.3677 -19.3490 -19.3476 -19.3406 -10.4743 -10.4501
-10.3970 -10.3588 -10.3573  -1.3482  -1.2045  -1.1990  -1.1645  -1.1338
 -1.0158  -0.9265  -0.8636  -0.8059  -0.7566  -0.6881  -0.6870  -0.6686
 -0.6461  -0.6376  -0.6171  -0.6137  -0.5965  -0.5773  -0.5547  -0.5365
 -0.5145  -0.5044  -0.4813  -0.4754  -0.4573  -0.4545  -0.4281  -0.4195
 -0.4053  -0.3964  -0.3814  -0.3765

 Beta MOs
 -- Occupied --
-19.4522 -19.4019 -19.3677 -19.3490 -19.3475 -19.3406 -10.4746 -10.4501
-10.3968 -10.3588 -10.3573  -1.3225  -1.2035  -1.1981  -1.1643  -1.1338
 -0.9898  -0.9193  -0.8567  -0.8053  -0.7535  -0.6863  -0.6796  -0.6640
 -0.6441  -0.6268  -0.6130  -0.6003  -0.5712  -0.5600  -0.5461  -0.5301
 -0.5087  -0.4971  -0.4799  -0.4745  -0.4525  -0.4505  -0.4275  -0.4080
 -0.3956  -0.3825  -0.3733

          Ground-State Mulliken Net Atomic Charges

     Atom                 Charge (a.u.)    Spin (a.u.)
  --------------------------------------------------------
      1 C                    -0.295234       0.008076
      2 O                    -0.413168       0.003371
      3 C                    -0.360793       0.002607
      4 O                    -0.359829      -0.001504
      5 O                     0.103003       0.315287
      6 O                    -0.222296       0.670050
      7 C                    -0.024834       0.007175
      8 C                    -0.057438      -0.003825
      9 C                    -0.263233      -0.000724
     10 O                    -0.433508       0.000084
     11 O                    -0.431427      -0.000084
     12 H                     0.266203      -0.000789
     13 H                     0.224606       0.000623
     14 H                     0.333533      -0.000481
     15 H                     0.375377       0.000111
     16 H                     0.297902       0.000193
     17 H                     0.286494       0.000043
     18 H                     0.305142      -0.000136
     19 H                     0.335387      -0.000054
     20 H                     0.334114      -0.000024
  --------------------------------------------------------
  Sum of atomic charges =    -0.000000

                    Cartesian Multipole Moments
 -----------------------------------------------------------------
    Charge (ESU x 10^10)
                -0.0000
    Dipole Moment (Debye)
         X      -3.5813      Y       0.3128      Z       0.3918
       Tot       3.6162
    Quadrupole Moments (Debye-Ang)
        XX     -91.4755     XY       4.7905     YY     -74.6172
        XZ     -11.1589     YZ       2.2654     ZZ     -59.5449

             Standard Nuclear Orientation (Angstroms)
    I     Atom           X                Y                Z
 ----------------------------------------------------------------
    1      C       0.8711538000    -0.1653791000     0.1616539000
    2      O       0.5791104000    -1.4658627000     0.6375090000
    3      C       2.3763280000     0.0794856000     0.1265123000
    4      O       3.0433695000    -0.7893116000    -0.7150949000
    5      O       2.5298621000     1.4831179000    -0.3922435000
    6      O       2.2877499000     1.5462599000    -1.6686106000
    7      C       3.0157690000     0.0974477000     1.4841060000
    8      C       4.3203900000     0.1901204000     1.6976170000
    9      C       5.3807895000     0.2769660000     0.6353318000
   10      O       6.4807402000     0.9355858000     1.2061411000
   11      O       5.8100247000    -1.0233680000     0.2485790000
   12      H       0.3975181000     0.6039928000     0.7714560000
   13      H       0.4890908000    -0.0946533000    -0.8563808000
   14      H       0.6163495000    -1.4618182000     1.6000755000
   15      H       2.5539263000    -0.8685240000    -1.5456438000
   16      H       2.3382102000     0.0271351000     2.3251113000
   17      H       4.6944927000     0.1777724000     2.7152753000
   18      H       5.0341497000     0.8161968000    -0.2465638000
   19      H       7.0837250000     1.1869598000     0.4970865000
   20      H       5.0951707000    -1.4025883000    -0.2805771000
 ----------------------------------------------------------------

 Frequency:        44.53                  73.18                  96.70
 Force Cnst:      0.0089                 0.0169                 0.0414
 Red. Mass:       7.6080                 5.3626                 7.5132
 IR Intens:        1.261                 14.345                  5.513
 Frequency:       116.79                 154.35                 189.32
 Force Cnst:      0.0463                 0.0632                 0.1215
 Red. Mass:       5.7611                 4.4993                 5.7559
 IR Intens:        5.565                 14.379                  3.328
 Frequency:       203.59                 255.80                 279.78
 Force Cnst:      0.0974                 0.1219                 0.0597
 Red. Mass:       3.9899                 3.1613                 1.2944
 IR Intens:        2.090                 33.299                229.674
 Frequency:       304.15                 325.01                 346.79
 Force Cnst:      0.0592                 0.1040                 0.0835
 Red. Mass:       1.0854                 1.6703                 1.1780
 IR Intens:      155.743                108.902                300.872
 Frequency:       363.15                 384.59                 406.36
 Force Cnst:      0.1782                 0.2397                 0.3777
 Red. Mass:       2.2932                 2.7509                 3.8820
 IR Intens:       52.953                 20.283                 70.755
 Frequency:       423.57                 465.95                 548.83
 Force Cnst:      0.4822                 0.5083                 0.7737
 Red. Mass:       4.5619                 3.9736                 4.3595
 IR Intens:       13.940                 60.644                 16.032
 Frequency:       593.44                 660.89                 713.70
 Force Cnst:      0.9349                 2.1359                 1.4561
 Red. Mass:       4.5058                 8.2996                 4.8517
 IR Intens:       20.412                  4.927                 29.586
 Frequency:       752.74                 804.14                 910.09
 Force Cnst:      0.7111                 1.4576                 2.1538
 Red. Mass:       2.1301                 3.8258                 4.4134
 IR Intens:        0.784                 10.350                233.157
 Frequency:       951.99                1009.82                1035.07
 Force Cnst:      0.9270                 1.6220                 0.9143
 Red. Mass:       1.7360                 2.6997                 1.4484
 IR Intens:       56.079                 15.573                  3.115
 Frequency:      1059.89                1120.47                1162.88
 Force Cnst:      2.1755                 1.3059                 1.4914
 Red. Mass:       3.2869                 1.7655                 1.8719
 IR Intens:      246.515                103.451                372.435
 Frequency:      1174.31                1213.22                1227.16
 Force Cnst:      1.3991                 1.0266                 2.2798
 Red. Mass:       1.7220                 1.1838                 2.5695
 IR Intens:       13.154                 67.242                120.919
 Frequency:      1268.28                1272.76                1277.76
 Force Cnst:      7.8961                 1.2828                 1.6186
 Red. Mass:       8.3316                 1.3441                 1.6826
 IR Intens:       21.694                  5.648                227.009
 Frequency:      1325.62                1370.17                1394.48
 Force Cnst:      1.6125                 1.4917                 1.4781
 Red. Mass:       1.5574                 1.3486                 1.2901
 IR Intens:      171.139                 48.761                 35.590
 Frequency:      1411.63                1419.28                1441.04
 Force Cnst:      1.5882                 1.7982                 2.0841
 Red. Mass:       1.3528                 1.5151                 1.7034
 IR Intens:       53.387                 46.523                 28.699
 Frequency:      1479.90                1496.33                1760.19
 Force Cnst:      1.5232                 2.2286                13.7132
 Red. Mass:       1.1805                 1.6894                 7.5122
 IR Intens:       40.157                114.079                  7.474
 Frequency:      3075.47                3086.67                3132.81
 Force Cnst:      5.9004                 6.0985                 6.4150
 Red. Mass:       1.0588                 1.0864                 1.1094
 IR Intens:       26.986                 41.691                 18.091
 Frequency:      3175.62                3200.46                3778.66
 Force Cnst:      6.4625                 6.6151                 8.9663
 Red. Mass:       1.0877                 1.0961                 1.0658
 IR Intens:        4.281                  3.557                317.649
 Frequency:      3780.34                3822.50                3828.16
 Force Cnst:      8.9688                 9.1822                 9.2126
 Red. Mass:       1.0652                 1.0666                 1.0670
 IR Intens:       24.226                147.401                135.256

 STANDARD THERMODYNAMIC QUANTITIES AT   298.15 K  AND     1.00 ATM

   This Molecule has  0 Imaginary Frequencies
   Zero point vibrational energy:       96.025 kcal/mol

   Atom    1 Element C  Has Mass   12.00000
   Atom    2 Element O  Has Mass   15.99491
   Atom    3 Element C  Has Mass   12.00000
   Atom    4 Element O  Has Mass   15.99491
   Atom    5 Element O  Has Mass   15.99491
   Atom    6 Element O  Has Mass   15.99491
   Atom    7 Element C  Has Mass   12.00000
   Atom    8 Element C  Has Mass   12.00000
   Atom    9 Element C  Has Mass   12.00000
   Atom   10 Element O  Has Mass   15.99491
   Atom   11 Element O  Has Mass   15.99491
   Atom   12 Element H  Has Mass    1.00783
   Atom   13 Element H  Has Mass    1.00783
   Atom   14 Element H  Has Mass    1.00783
   Atom   15 Element H  Has Mass    1.00783
   Atom   16 Element H  Has Mass    1.00783
   Atom   17 Element H  Has Mass    1.00783
   Atom   18 Element H  Has Mass    1.00783
   Atom   19 Element H  Has Mass    1.00783
   Atom   20 Element H  Has Mass    1.00783
   Molecular Mass:   165.039930 amu
   Principal axes and moments of inertia in amu*Bohr^2:
                             1           2           3
    Eigenvalues --     1039.75076  2588.73790  2933.35572
          X               0.97506     0.07090    -0.21031
          Y               0.08510     0.75576     0.64930
          Z               0.20498    -0.65101     0.73087
   Rotational Symmetry Number is   1
   The Molecule is an Asymmetric Top
   Translational Enthalpy:        0.889 kcal/mol
   Rotational Enthalpy:           0.889 kcal/mol
   Vibrational Enthalpy:        102.046 kcal/mol
   gas constant (RT):             0.592 kcal/mol
   Translational Entropy:        41.211  cal/mol.K
   Rotational Entropy:           30.446  cal/mol.K
   Vibrational Entropy:          37.580  cal/mol.K

   Total Enthalpy:              104.415 kcal/mol
   Total Entropy:               109.237  cal/mol.K
 Total job time:  26970.03s(wall), 384900.81s(cpu)
        *  Thank you very much for using Q-Chem.  Have a nice day.  *
