 Q-Chem 5.4, Q-Chem, Inc., Pleasanton, CA (2021)
 Q-Chem 5.4.1 for Intel X86 EM64T Linux

User input:
--------------------------------------------------------------
$molecule
0 2
C         0.8663210151   -0.1764445280    0.1659943097
O         0.5742061701   -1.4815203996    0.6292980544
C         2.3756506233    0.0647248489    0.1453664299
O         3.0431476109   -0.8289116792   -0.6799703554
O         2.5476503941    1.4550571012   -0.4000675578
O         2.3449306183    1.4665849186   -1.6945499127
C         3.0104654551    0.0932644371    1.5077343374
C         4.3210045330    0.2165677911    1.7128098052
C         5.3721986833    0.3036246899    0.6327862535
O         6.4938214456    0.9227056337    1.2073859936
O         5.7569064579   -0.9956811937    0.2056226974
H         0.3825626657    0.5978770815    0.7714181858
H         0.4960919794   -0.1008681113   -0.8613495889
H         0.6175811719   -1.4676525774    1.5990598726
H         2.6151510420   -0.8002947784   -1.5565922941
H         2.3333988109    0.0130326902    2.3545531906
H         4.7050497662    0.2121981782    2.7316491465
H         5.0131718092    0.8784949892   -0.2295923924
H         7.1235265267    1.0916024173    0.4868301239
H         5.0050832216   -1.3148265095   -0.3270458992
$end

$rem
BASIS = 6-311++G(2df,2p)
GUI = 2
JOB_TYPE = Optimization
METHOD = wB97M-V
SCF_ALGORITHM = DIIS_GDM
MAX_SCF_CYCLES = 400
GEOM_OPT_MAX_CYCLES = 150
SCF_CONVERGENCE = 7
THRESH = 12
Solvent_method = SMD
$end
--------------------------------------------------------------

   23    -647.1816252552      5.12e-08  Convergence criterion met
 Total energy in the final basis set =     -647.1759921139
   19    -647.1823989558      8.93e-08  Convergence criterion met
 Total energy in the final basis set =     -647.1766927867
   20    -647.1824327884      4.55e-08  Convergence criterion met
 Total energy in the final basis set =     -647.1767281576
   20    -647.1826206098      4.60e-08  Convergence criterion met
 Total energy in the final basis set =     -647.1769114452
   19    -647.1826332612      7.91e-08  Convergence criterion met
 Total energy in the final basis set =     -647.1769000343
   19    -647.1827001856      8.37e-08  Convergence criterion met
 Total energy in the final basis set =     -647.1769692186
   19    -647.1827119250      6.22e-08  Convergence criterion met
 Total energy in the final basis set =     -647.1769788213
   18    -647.1827187669      6.89e-08  Convergence criterion met
 Total energy in the final basis set =     -647.1769812877

             Standard Nuclear Orientation (Angstroms)
    I     Atom           X                Y                Z
 ----------------------------------------------------------------
    1      C       0.8711537792    -0.1653790801     0.1616538984
    2      O       0.5791104319    -1.4658626727     0.6375089780
    3      C       2.3763279929     0.0794856133     0.1265123074
    4      O       3.0433694534    -0.7893115927    -0.7150948605
    5      O       2.5298621060     1.4831179094    -0.3922434596
    6      O       2.2877499130     1.5462598702    -1.6686106447
    7      C       3.0157689557     0.0974476707     1.4841060297
    8      C       4.3203899911     0.1901203551     1.6976170372
    9      C       5.3807894865     0.2769660359     0.6353318321
   10      O       6.4807402177     0.9355857937     1.2061411416
   11      O       5.8100246794    -1.0233679727     0.2485789904
   12      H       0.3975180793     0.6039927751     0.7714560439
   13      H       0.4890907950    -0.0946532623    -0.8563807708
   14      H       0.6163495100    -1.4618181612     1.6000755365
   15      H       2.5539263216    -0.8685240211    -1.5456438262
   16      H       2.3382101778     0.0271351058     2.3251113076
   17      H       4.6944927441     0.1777723881     2.7152753499
   18      H       5.0341496748     0.8161968000    -0.2465638062
   19      H       7.0837250028     1.1869597896     0.4970864530
   20      H       5.0951706880    -1.4025883444    -0.2805771376
 ----------------------------------------------------------------

   18    -647.1827190051      5.54e-08  Convergence criterion met
 Total energy in the final basis set =     -647.1769815029
 Final energy is   -647.176981502888
 **  OPTIMIZATION CONVERGED  **

                    Orbital Energies (a.u.)
 --------------------------------------------------------------

 Alpha MOs
 -- Occupied --
-19.4626 -19.4207 -19.3677 -19.3490 -19.3476 -19.3406 -10.4743 -10.4501
-10.3970 -10.3588 -10.3574  -1.3482  -1.2045  -1.1990  -1.1645  -1.1339
 -1.0158  -0.9265  -0.8636  -0.8059  -0.7566  -0.6881  -0.6870  -0.6686
 -0.6462  -0.6376  -0.6171  -0.6137  -0.5965  -0.5773  -0.5547  -0.5365
 -0.5145  -0.5044  -0.4813  -0.4754  -0.4573  -0.4545  -0.4281  -0.4195
 -0.4053  -0.3964  -0.3814  -0.3766

 Beta MOs
 -- Occupied --
-19.4522 -19.4019 -19.3677 -19.3490 -19.3475 -19.3406 -10.4746 -10.4501
-10.3968 -10.3589 -10.3573  -1.3225  -1.2036  -1.1981  -1.1643  -1.1339
 -0.9898  -0.9193  -0.8567  -0.8054  -0.7535  -0.6864  -0.6796  -0.6640
 -0.6442  -0.6268  -0.6131  -0.6003  -0.5712  -0.5600  -0.5461  -0.5301
 -0.5087  -0.4971  -0.4799  -0.4745  -0.4525  -0.4505  -0.4275  -0.4080
 -0.3956  -0.3825  -0.3734

          Ground-State Mulliken Net Atomic Charges

     Atom                 Charge (a.u.)    Spin (a.u.)
  --------------------------------------------------------
      1 C                    -0.295232       0.008076
      2 O                    -0.413169       0.003371
      3 C                    -0.360705       0.002608
      4 O                    -0.359825      -0.001505
      5 O                     0.102999       0.315287
      6 O                    -0.222294       0.670051
      7 C                    -0.024992       0.007174
      8 C                    -0.057224      -0.003826
      9 C                    -0.263443      -0.000724
     10 O                    -0.433476       0.000084
     11 O                    -0.431232      -0.000083
     12 H                     0.266204      -0.000789
     13 H                     0.224606       0.000624
     14 H                     0.333535      -0.000481
     15 H                     0.375372       0.000111
     16 H                     0.297900       0.000193
     17 H                     0.286500       0.000043
     18 H                     0.305147      -0.000136
     19 H                     0.335378      -0.000054
     20 H                     0.333952      -0.000025
  --------------------------------------------------------
  Sum of atomic charges =     0.000000

                    Cartesian Multipole Moments
 -----------------------------------------------------------------
    Charge (ESU x 10^10)
                 0.0000
    Dipole Moment (Debye)
         X      -3.5814      Y       0.3128      Z       0.3939
       Tot       3.6166
    Quadrupole Moments (Debye-Ang)
        XX     -91.4760     XY       4.7908     YY     -74.6161
        XZ     -11.1487     YZ       2.2624     ZZ     -59.5456

 Total job time:  2334.32s(wall), 33079.41s(cpu)
        *  Thank you very much for using Q-Chem.  Have a nice day.  *
