 Q-Chem 5.4, Q-Chem, Inc., Pleasanton, CA (2021)
 Q-Chem 5.4.1 for Intel X86 EM64T Linux

User input:
--------------------------------------------------------------
$molecule
0 1
C        -4.1657591026   -1.3118455801    3.8853245148
H        -4.2276465460   -0.9088786730    4.8964569500
O        -4.1329931787   -0.1613145538    3.0274790853
H        -4.0369884259   -0.4679233637    2.1183251173
C        -5.3392630310   -2.2108369850    3.6066153787
C        -6.6216274900   -1.6778362713    3.4559191125
C        -7.7188260163   -2.5041562816    3.2636296777
H        -8.6989569953   -2.0599517383    3.1523355869
C        -7.5427869092   -3.8795160783    3.2165216192
H        -8.4007210941   -4.5210657409    3.0672675737
C        -6.2745237512   -4.4292571434    3.3481926206
H        -6.1338959959   -5.5002022668    3.3007660831
C        -5.1844302599   -3.5901330178    3.5359765209
H        -4.1902112890   -4.0074756736    3.6395020632
H        -3.2369814995   -1.8759901440    3.8023322922
O        -6.8387683878   -0.3205125191    3.5117451809
H        -5.9869130275    0.1243992307    3.3625928232
$end

$rem
BASIS = 6-311++G(2df,2p)
GUI = 2
JOB_TYPE = Frequency
METHOD = wB97M-V
SOLVENT_METHOD = SMD
SCF_ALGORITHM = DIIS_GDM
MAX_SCF_CYCLES = 400
SCF_CONVERGENCE = 7
THRESH = 12
SYMMETRY_IGNORE = 1
$end
--------------------------------------------------------------

   15    -422.0047597122      6.50e-08  Convergence criterion met
 Total energy in the final basis set =     -421.9990195556
   13    -422.0047607203      8.48e-08  Convergence criterion met
 Total energy in the final basis set =     -421.9990185253
   13    -422.0047567133      8.39e-08  Convergence criterion met
 Total energy in the final basis set =     -421.9990185799
   13    -422.0047589626      8.50e-08  Convergence criterion met
 Total energy in the final basis set =     -421.9990185932
   13    -422.0047587042      8.39e-08  Convergence criterion met
 Total energy in the final basis set =     -421.9990187555
   13    -422.0047594623      8.42e-08  Convergence criterion met
 Total energy in the final basis set =     -421.9990185991
   13    -422.0047580168      8.48e-08  Convergence criterion met
 Total energy in the final basis set =     -421.9990185575
   13    -422.0047590102      8.43e-08  Convergence criterion met
 Total energy in the final basis set =     -421.9990194368
   13    -422.0047600133      8.41e-08  Convergence criterion met
 Total energy in the final basis set =     -421.9990195197
   13    -422.0047590811      8.52e-08  Convergence criterion met
 Total energy in the final basis set =     -421.9990189103
   13    -422.0047590530      8.30e-08  Convergence criterion met
 Total energy in the final basis set =     -421.9990189107
   13    -422.0047601573      8.50e-08  Convergence criterion met
 Total energy in the final basis set =     -421.9990192562
   13    -422.0047586783      8.39e-08  Convergence criterion met
 Total energy in the final basis set =     -421.9990192662
   13    -422.0047595431      8.44e-08  Convergence criterion met
 Total energy in the final basis set =     -421.9990195368
   13    -422.0047598029      8.47e-08  Convergence criterion met
 Total energy in the final basis set =     -421.9990194953

                    Orbital Energies (a.u.)
 --------------------------------------------------------------

 Alpha MOs
 -- Occupied --
-19.3539 -19.3467 -10.4071 -10.3916 -10.3499 -10.3458 -10.3451 -10.3394
-10.3370  -1.1869  -1.1587  -0.9849  -0.8937  -0.8642  -0.8004  -0.7262
 -0.7185  -0.6595  -0.6139  -0.6061  -0.5625  -0.5599  -0.5462  -0.5295
 -0.5210  -0.4933  -0.4793  -0.4520  -0.4432  -0.4396  -0.3967  -0.3449
 -0.3183

          Ground-State Mulliken Net Atomic Charges

     Atom                 Charge (a.u.)
  ----------------------------------------
      1 C                    -0.555197
      2 H                     0.219189
      3 O                    -0.395343
      4 H                     0.328973
      5 C                     0.936135
      6 C                    -0.052215
      7 C                    -0.445477
      8 H                     0.290298
      9 C                    -0.349289
     10 H                     0.284448
     11 C                    -0.488871
     12 H                     0.289343
     13 C                    -0.496410
     14 H                     0.266262
     15 H                     0.254397
     16 O                    -0.447587
     17 H                     0.361344
  ----------------------------------------
  Sum of atomic charges =     0.000000

                    Cartesian Multipole Moments
 -----------------------------------------------------------------
    Charge (ESU x 10^10)
                 0.0000
    Dipole Moment (Debye)
         X       2.5215      Y      -2.1116      Z      -0.9776
       Tot       3.4312
    Quadrupole Moments (Debye-Ang)
        XX     -78.9052     XY       8.5329     YY     -46.7849
        XZ      14.2667     YZ      -6.3704     ZZ     -60.2797

             Standard Nuclear Orientation (Angstroms)
    I     Atom           X                Y                Z
 ----------------------------------------------------------------
    1      C      -4.1657591026    -1.3118455801     3.8853245148
    2      H      -4.2276465460    -0.9088786730     4.8964569500
    3      O      -4.1329931787    -0.1613145538     3.0274790853
    4      H      -4.0369884259    -0.4679233637     2.1183251173
    5      C      -5.3392630310    -2.2108369850     3.6066153787
    6      C      -6.6216274900    -1.6778362713     3.4559191125
    7      C      -7.7188260163    -2.5041562816     3.2636296777
    8      H      -8.6989569953    -2.0599517383     3.1523355869
    9      C      -7.5427869092    -3.8795160783     3.2165216192
   10      H      -8.4007210941    -4.5210657409     3.0672675737
   11      C      -6.2745237512    -4.4292571434     3.3481926206
   12      H      -6.1338959959    -5.5002022668     3.3007660831
   13      C      -5.1844302599    -3.5901330178     3.5359765209
   14      H      -4.1902112890    -4.0074756736     3.6395020632
   15      H      -3.2369814995    -1.8759901440     3.8023322922
   16      O      -6.8387683878    -0.3205125191     3.5117451809
   17      H      -5.9869130275     0.1243992307     3.3625928232
 ----------------------------------------------------------------

 Frequency:       100.62                 157.25                 234.35
 Force Cnst:      0.0217                 0.0472                 0.1681
 Red. Mass:       3.6304                 3.2419                 5.1962
 IR Intens:        7.565                  3.010                  8.307
 Frequency:       266.84                 347.42                 398.64
 Force Cnst:      0.1393                 0.1112                 0.2076
 Red. Mass:       3.3213                 1.5640                 2.2171
 IR Intens:        5.551                116.015                127.325
 Frequency:       425.81                 464.58                 553.11
 Force Cnst:      0.4410                 0.4160                 0.6672
 Red. Mass:       4.1284                 3.2716                 3.7015
 IR Intens:       21.022                 21.772                  6.196
 Frequency:       567.17                 603.55                 626.91
 Force Cnst:      1.1661                 0.2569                 0.7928
 Red. Mass:       6.1525                 1.1971                 3.4238
 IR Intens:        5.577                147.511                 75.842
 Frequency:       746.41                 776.34                 782.77
 Force Cnst:      0.9440                 1.4791                 0.5102
 Red. Mass:       2.8757                 4.1653                 1.4133
 IR Intens:       27.037                 35.498                124.779
 Frequency:       858.65                 896.75                 962.25
 Force Cnst:      1.5831                 0.7373                 0.8607
 Red. Mass:       3.6444                 1.5562                 1.5776
 IR Intens:       13.062                  5.515                 70.601
 Frequency:       991.12                1021.61                1030.86
 Force Cnst:      0.8222                 0.8291                 3.8351
 Red. Mass:       1.4207                 1.3483                 6.1254
 IR Intens:        6.097                  2.049                167.792
 Frequency:      1067.14                1120.01                1156.78
 Force Cnst:      1.3852                 1.2864                 0.8930
 Red. Mass:       2.0645                 1.7406                 1.1327
 IR Intens:        9.799                 21.276                 12.596
 Frequency:      1198.52                1207.01                1227.02
 Force Cnst:      0.9550                 1.5363                 2.8629
 Red. Mass:       1.1284                 1.7898                 3.2274
 IR Intens:       24.381                 30.917                374.312
 Frequency:      1277.13                1308.67                1379.38
 Force Cnst:      1.8283                 3.0545                 1.3352
 Red. Mass:       1.9025                 3.0271                 1.1910
 IR Intens:        3.349                 19.591                 74.605
 Frequency:      1382.37                1409.02                1478.72
 Force Cnst:      1.6636                 1.5398                 1.4014
 Red. Mass:       1.4775                 1.3164                 1.0878
 IR Intens:       33.717                 53.647                  6.177
 Frequency:      1504.07                1526.92                1653.60
 Force Cnst:      3.3634                 3.8178                10.0992
 Red. Mass:       2.5235                 2.7792                 6.2687
 IR Intens:       66.812                114.840                 87.268
 Frequency:      1688.68                3069.36                3114.43
 Force Cnst:     10.7820                 5.8722                 6.3355
 Red. Mass:       6.4174                 1.0579                 1.1086
 IR Intens:       37.489                 51.511                 26.842
 Frequency:      3182.59                3193.31                3204.81
 Force Cnst:      6.4963                 6.5394                 6.6160
 Red. Mass:       1.0886                 1.0884                 1.0933
 IR Intens:        8.160                  7.115                 22.541
 Frequency:      3214.35                3629.08                3816.66
 Force Cnst:      6.6860                 8.2765                 9.1531
 Red. Mass:       1.0983                 1.0666                 1.0665
 IR Intens:       14.342                571.596                112.351

 STANDARD THERMODYNAMIC QUANTITIES AT   298.15 K  AND     1.00 ATM

   This Molecule has  0 Imaginary Frequencies
   Zero point vibrational energy:       86.950 kcal/mol

   Atom    1 Element C  Has Mass   12.00000
   Atom    2 Element H  Has Mass    1.00783
   Atom    3 Element O  Has Mass   15.99491
   Atom    4 Element H  Has Mass    1.00783
   Atom    5 Element C  Has Mass   12.00000
   Atom    6 Element C  Has Mass   12.00000
   Atom    7 Element C  Has Mass   12.00000
   Atom    8 Element H  Has Mass    1.00783
   Atom    9 Element C  Has Mass   12.00000
   Atom   10 Element H  Has Mass    1.00783
   Atom   11 Element C  Has Mass   12.00000
   Atom   12 Element H  Has Mass    1.00783
   Atom   13 Element C  Has Mass   12.00000
   Atom   14 Element H  Has Mass    1.00783
   Atom   15 Element H  Has Mass    1.00783
   Atom   16 Element O  Has Mass   15.99491
   Atom   17 Element H  Has Mass    1.00783
   Molecular Mass:   124.052460 amu
   Principal axes and moments of inertia in amu*Bohr^2:
                             1           2           3
    Eigenvalues --      595.42663  1277.94844  1799.02458
          X               0.58216     0.81120    -0.05510
          Y               0.81288    -0.58217     0.01749
          Z               0.01789     0.05497     0.99833
   Rotational Symmetry Number is   1
   The Molecule is an Asymmetric Top
   Translational Enthalpy:        0.889 kcal/mol
   Rotational Enthalpy:           0.889 kcal/mol
   Vibrational Enthalpy:         90.046 kcal/mol
   gas constant (RT):             0.592 kcal/mol
   Translational Entropy:        40.360  cal/mol.K
   Rotational Entropy:           28.705  cal/mol.K
   Vibrational Entropy:          16.995  cal/mol.K

   Total Enthalpy:               92.416 kcal/mol
   Total Entropy:                86.061  cal/mol.K
 Total job time:  21216.97s(wall), 163181.59s(cpu)
        *  Thank you very much for using Q-Chem.  Have a nice day.  *
