 Q-Chem 5.4, Q-Chem, Inc., Pleasanton, CA (2021)
 Q-Chem 5.4.1 for Intel X86 EM64T Linux

User input:
--------------------------------------------------------------
$molecule
0 1
C        -4.1538703346   -1.3149570340    3.8816344488
H        -4.1793370632   -0.9562029684    4.9158200779
O        -4.1665589564   -0.1220847244    3.0792698343
H        -4.1185788332   -0.4027337480    2.1491853344
C        -5.3318130556   -2.2167792712    3.6034330168
C        -6.6151997108   -1.6726971459    3.4382793781
C        -7.7189714627   -2.5020358915    3.2466569497
H        -8.6985519180   -2.0495870914    3.1210591002
C        -7.5496324026   -3.8834497370    3.2170079743
H        -8.4139685660   -4.5245218885    3.0673345503
C        -6.2807756002   -4.4413500959    3.3652711315
H        -6.1454219600   -5.5183143374    3.3319859889
C        -5.1836483666   -3.6026749779    3.5510172504
H        -4.1880164750   -4.0259489919    3.6663112196
H        -3.2159575114   -1.8625660005    3.7381631382
O        -6.8249419722   -0.3148241882    3.4733996071
H        -5.9460488116    0.1082312920    3.3451531998
$end

$rem
BASIS = 6-311++G(2df,2p)
GUI = 2
JOB_TYPE = Optimization
METHOD = wB97M-V
SCF_ALGORITHM = DIIS_GDM
MAX_SCF_CYCLES = 400
GEOM_OPT_MAX_CYCLES = 150
SCF_CONVERGENCE = 7
THRESH = 12
Solvent_method = SMD
$end
--------------------------------------------------------------

   15    -422.0041552199      5.49e-08  Convergence criterion met
 Total energy in the final basis set =     -421.9984047873
   13    -422.0046469166      4.95e-08  Convergence criterion met
 Total energy in the final basis set =     -421.9988914094
   13    -422.0047017858      9.14e-08  Convergence criterion met
 Total energy in the final basis set =     -421.9989687586
   13    -422.0047594714      7.98e-08  Convergence criterion met
 Total energy in the final basis set =     -421.9990153557
   13    -422.0047605544      8.38e-08  Convergence criterion met
 Total energy in the final basis set =     -421.9990180118
   13    -422.0047588952      8.31e-08  Convergence criterion met
 Total energy in the final basis set =     -421.9990194116

             Standard Nuclear Orientation (Angstroms)
    I     Atom           X                Y                Z
 ----------------------------------------------------------------
    1      C      -4.1657591026    -1.3118455801     3.8853245148
    2      H      -4.2276465460    -0.9088786730     4.8964569500
    3      O      -4.1329931787    -0.1613145538     3.0274790853
    4      H      -4.0369884259    -0.4679233637     2.1183251173
    5      C      -5.3392630310    -2.2108369850     3.6066153787
    6      C      -6.6216274900    -1.6778362713     3.4559191125
    7      C      -7.7188260163    -2.5041562816     3.2636296777
    8      H      -8.6989569953    -2.0599517383     3.1523355869
    9      C      -7.5427869092    -3.8795160783     3.2165216192
   10      H      -8.4007210941    -4.5210657409     3.0672675737
   11      C      -6.2745237512    -4.4292571434     3.3481926206
   12      H      -6.1338959959    -5.5002022668     3.3007660831
   13      C      -5.1844302599    -3.5901330178     3.5359765209
   14      H      -4.1902112890    -4.0074756736     3.6395020632
   15      H      -3.2369814995    -1.8759901440     3.8023322922
   16      O      -6.8387683878    -0.3205125191     3.5117451809
   17      H      -5.9869130275     0.1243992307     3.3625928232
 ----------------------------------------------------------------

   13    -422.0047597110      8.36e-08  Convergence criterion met
 Total energy in the final basis set =     -421.9990195544
 Final energy is   -421.999019554371
 **  OPTIMIZATION CONVERGED  **

                    Orbital Energies (a.u.)
 --------------------------------------------------------------

 Alpha MOs
 -- Occupied --
-19.3539 -19.3467 -10.4071 -10.3916 -10.3499 -10.3458 -10.3451 -10.3394
-10.3370  -1.1869  -1.1587  -0.9849  -0.8937  -0.8642  -0.8005  -0.7262
 -0.7185  -0.6595  -0.6139  -0.6061  -0.5625  -0.5599  -0.5462  -0.5295
 -0.5210  -0.4933  -0.4793  -0.4520  -0.4432  -0.4396  -0.3967  -0.3449
 -0.3182

          Ground-State Mulliken Net Atomic Charges

     Atom                 Charge (a.u.)
  ----------------------------------------
      1 C                    -0.555335
      2 H                     0.219220
      3 O                    -0.395387
      4 H                     0.328985
      5 C                     0.936629
      6 C                    -0.052646
      7 C                    -0.445581
      8 H                     0.290302
      9 C                    -0.349349
     10 H                     0.284450
     11 C                    -0.488834
     12 H                     0.289347
     13 C                    -0.496318
     14 H                     0.266266
     15 H                     0.254392
     16 O                    -0.447440
     17 H                     0.361299
  ----------------------------------------
  Sum of atomic charges =     0.000000

                    Cartesian Multipole Moments
 -----------------------------------------------------------------
    Charge (ESU x 10^10)
                 0.0000
    Dipole Moment (Debye)
         X       2.5212      Y      -2.1115      Z      -0.9756
       Tot       3.4302
    Quadrupole Moments (Debye-Ang)
        XX     -78.9015     XY       8.5321     YY     -46.7852
        XZ      14.2538     YZ      -6.3692     ZZ     -60.2659

 Total job time:  1619.29s(wall), 11932.85s(cpu)
        *  Thank you very much for using Q-Chem.  Have a nice day.  *
