 Q-Chem 5.4, Q-Chem, Inc., Pleasanton, CA (2021)
 Q-Chem 5.4.2 for Intel X86 EM64T Linux

User input:
--------------------------------------------------------------
$molecule
0 2
C         1.0660571488    0.3237733651   -0.2325855600
O         0.4542957641   -0.6813138616   -1.0173527261
C         2.5781629610    0.2872608125   -0.2171538741
O         3.1870226054    1.1259783861    0.4206522509
C         3.2687435449   -0.7840759424   -1.0114261882
C         4.7689790185   -0.7600980837   -0.8625642275
O         5.0515239238   -1.2052739763    0.4953712963
O         6.0874048818   -0.6108432645    1.0149347645
C         5.4697369349   -1.7163757806   -1.8248153092
O         5.2558747581   -1.1829348814   -3.1084419619
O         6.8375815243   -1.8501716714   -1.5327799864
H         0.7257445879    0.2952847279    0.8048789827
H         0.7766419401    1.2890307803   -0.6485619100
H         0.4890151494   -1.5141220954   -0.5352659243
H         2.9955334463   -0.6532232205   -2.0597162782
H         2.8690032901   -1.7587673354   -0.7201859531
H         5.1881490347    0.2399585763   -0.9642126926
H         5.0514859113   -2.7197167659   -1.7416041604
H         5.4622929584   -1.8656357292   -3.7570392154
H         7.2409706161   -0.9720060399   -1.5237881869
$end

$rem
BASIS = 6-311++G(2df,2p)
GUI = 2
JOB_TYPE = Frequency
METHOD = wB97M-V
SOLVENT_METHOD = SMD
SCF_ALGORITHM = DIIS_GDM
MAX_SCF_CYCLES = 400
SCF_CONVERGENCE = 7
THRESH = 12
$end
--------------------------------------------------------------

   21    -647.2045452618      5.13e-08  Convergence criterion met
 Total energy in the final basis set =     -647.1980261228
   19    -647.2045417899      5.88e-08  Convergence criterion met
 Total energy in the final basis set =     -647.1980252127
   19    -647.2045470875      5.84e-08  Convergence criterion met
 Total energy in the final basis set =     -647.1980253134
   19    -647.2045439300      5.87e-08  Convergence criterion met
 Total energy in the final basis set =     -647.1980250533
   19    -647.2045445998      5.86e-08  Convergence criterion met
 Total energy in the final basis set =     -647.1980250124
   19    -647.2045436819      5.89e-08  Convergence criterion met
 Total energy in the final basis set =     -647.1980250709
   19    -647.2045448516      5.76e-08  Convergence criterion met
 Total energy in the final basis set =     -647.1980250664
   19    -647.2045463001      5.87e-08  Convergence criterion met
 Total energy in the final basis set =     -647.1980256165
   19    -647.2045457525      5.86e-08  Convergence criterion met
 Total energy in the final basis set =     -647.1980256472
   19    -647.2045459168      5.86e-08  Convergence criterion met
 Total energy in the final basis set =     -647.1980258851
   19    -647.2045441028      5.87e-08  Convergence criterion met
 Total energy in the final basis set =     -647.1980258563
   19    -647.2045448260      5.86e-08  Convergence criterion met
 Total energy in the final basis set =     -647.1980253944
   19    -647.2045441689      5.87e-08  Convergence criterion met
 Total energy in the final basis set =     -647.1980253224
   19    -647.2045450291      5.86e-08  Convergence criterion met
 Total energy in the final basis set =     -647.1980260696
   19    -647.2045454765      5.87e-08  Convergence criterion met
 Total energy in the final basis set =     -647.1980261578

                    Orbital Energies (a.u.)
 --------------------------------------------------------------

 Alpha MOs
 -- Occupied --
-19.4657 -19.4181 -19.3507 -19.3487 -19.3452 -19.3393 -10.4546 -10.4480
-10.4148 -10.3946 -10.3565  -1.3465  -1.2077  -1.1935  -1.1643  -1.1398
 -1.0312  -0.9090  -0.8564  -0.8195  -0.7503  -0.6880  -0.6766  -0.6579
 -0.6423  -0.6269  -0.6052  -0.5935  -0.5847  -0.5727  -0.5582  -0.5420
 -0.5343  -0.5224  -0.4928  -0.4758  -0.4514  -0.4470  -0.4416  -0.4257
 -0.4145  -0.4057  -0.3888  -0.3618

 Beta MOs
 -- Occupied --
-19.4553 -19.3994 -19.3506 -19.3486 -19.3452 -19.3393 -10.4543 -10.4480
-10.4151 -10.3946 -10.3564  -1.3204  -1.2072  -1.1935  -1.1643  -1.1396
 -1.0055  -0.8987  -0.8524  -0.8183  -0.7465  -0.6819  -0.6757  -0.6492
 -0.6208  -0.6188  -0.6029  -0.5835  -0.5793  -0.5614  -0.5478  -0.5415
 -0.5227  -0.5057  -0.4912  -0.4747  -0.4496  -0.4416  -0.4326  -0.4256
 -0.4114  -0.3867  -0.3617

          Ground-State Mulliken Net Atomic Charges

     Atom                 Charge (a.u.)    Spin (a.u.)
  --------------------------------------------------------
      1 C                    -0.232753       0.002277
      2 O                    -0.429361       0.000175
      3 C                     0.380195      -0.005768
      4 O                    -0.458526      -0.000205
      5 C                    -0.444569       0.007016
      6 C                    -0.088043       0.004487
      7 O                     0.113806       0.310857
      8 O                    -0.229510       0.669026
      9 C                    -0.325164       0.010434
     10 O                    -0.407533       0.001575
     11 O                    -0.462364      -0.000681
     12 H                     0.212828       0.000167
     13 H                     0.202831      -0.000100
     14 H                     0.340115       0.000026
     15 H                     0.236468       0.000648
     16 H                     0.264531      -0.000351
     17 H                     0.332246       0.000530
     18 H                     0.302650      -0.000623
     19 H                     0.337453       0.000529
     20 H                     0.354700      -0.000018
  --------------------------------------------------------
  Sum of atomic charges =    -0.000000

                    Cartesian Multipole Moments
 -----------------------------------------------------------------
    Charge (ESU x 10^10)
                 0.0000
    Dipole Moment (Debye)
         X      -3.5312      Y      -3.3339      Z      -3.7299
       Tot       6.1235
    Quadrupole Moments (Debye-Ang)
        XX     -95.8710     XY      -4.9313     YY     -61.0390
        XZ     -25.5332     YZ       5.0731     ZZ     -62.9105

             Standard Nuclear Orientation (Angstroms)
    I     Atom           X                Y                Z
 ----------------------------------------------------------------
    1      C       1.0660571488     0.3237733651    -0.2325855600
    2      O       0.4542957641    -0.6813138616    -1.0173527261
    3      C       2.5781629610     0.2872608125    -0.2171538741
    4      O       3.1870226054     1.1259783861     0.4206522509
    5      C       3.2687435449    -0.7840759424    -1.0114261882
    6      C       4.7689790185    -0.7600980837    -0.8625642275
    7      O       5.0515239238    -1.2052739763     0.4953712963
    8      O       6.0874048818    -0.6108432645     1.0149347645
    9      C       5.4697369349    -1.7163757806    -1.8248153092
   10      O       5.2558747581    -1.1829348814    -3.1084419619
   11      O       6.8375815243    -1.8501716714    -1.5327799864
   12      H       0.7257445879     0.2952847279     0.8048789827
   13      H       0.7766419401     1.2890307803    -0.6485619100
   14      H       0.4890151494    -1.5141220954    -0.5352659243
   15      H       2.9955334463    -0.6532232205    -2.0597162782
   16      H       2.8690032901    -1.7587673354    -0.7201859531
   17      H       5.1881490347     0.2399585763    -0.9642126926
   18      H       5.0514859113    -2.7197167659    -1.7416041604
   19      H       5.4622929584    -1.8656357292    -3.7570392154
   20      H       7.2409706161    -0.9720060399    -1.5237881869
 ----------------------------------------------------------------

 Frequency:        48.76                  66.26                  72.43
 Force Cnst:      0.0108                 0.0119                 0.0154
 Red. Mass:       7.7415                 4.6150                 4.9821
 IR Intens:        2.177                  5.976                  3.629
 Frequency:        80.96                  97.30                 122.24
 Force Cnst:      0.0113                 0.0310                 0.0586
 Red. Mass:       2.9151                 5.5516                 6.6565
 IR Intens:       14.336                 11.228                  1.477
 Frequency:       212.76                 230.45                 269.46
 Force Cnst:      0.2122                 0.1975                 0.0480
 Red. Mass:       7.9560                 6.3115                 1.1221
 IR Intens:       19.556                  6.035                181.274
 Frequency:       288.97                 322.15                 325.11
 Force Cnst:      0.0938                 0.0805                 0.0790
 Red. Mass:       1.9067                 1.3166                 1.2692
 IR Intens:       41.876                150.112                262.883
 Frequency:       341.64                 433.08                 462.83
 Force Cnst:      0.3140                 0.3569                 0.3773
 Red. Mass:       4.5658                 3.2294                 2.9897
 IR Intens:       12.465                  7.026                 24.044
 Frequency:       466.74                 518.58                 533.09
 Force Cnst:      0.5804                 1.0288                 0.8877
 Red. Mass:       4.5221                 6.4930                 5.3019
 IR Intens:      125.253                 25.738                 31.266
 Frequency:       603.46                 658.76                 765.83
 Force Cnst:      1.2007                 0.8671                 0.6188
 Red. Mass:       5.5963                 3.3914                 1.7907
 IR Intens:       43.982                  8.336                 12.556
 Frequency:       844.39                 920.68                1024.08
 Force Cnst:      1.8117                 1.0923                 1.4275
 Red. Mass:       4.3127                 2.1871                 2.3102
 IR Intens:        9.843                  3.782                140.191
 Frequency:      1045.68                1103.29                1153.38
 Force Cnst:      2.1579                 1.5592                 1.4727
 Red. Mass:       3.3495                 2.1740                 1.8790
 IR Intens:       39.605                 10.477                 43.495
 Frequency:      1186.47                1199.84                1222.68
 Force Cnst:      2.0403                 1.0887                 1.4722
 Red. Mass:       2.4599                 1.2836                 1.6714
 IR Intens:      157.945                 37.869                 69.635
 Frequency:      1239.02                1250.63                1260.36
 Force Cnst:      1.3753                 1.7332                 1.5572
 Red. Mass:       1.5205                 1.8807                 1.6638
 IR Intens:      110.128                 34.045                 43.446
 Frequency:      1284.19                1292.92                1333.20
 Force Cnst:      3.0088                 3.9214                 1.4784
 Red. Mass:       3.0966                 3.9815                 1.4117
 IR Intens:       93.685                214.570                 33.062
 Frequency:      1362.36                1379.17                1388.88
 Force Cnst:      1.6898                 1.5788                 1.2993
 Red. Mass:       1.5452                 1.4088                 1.1432
 IR Intens:       27.245                 20.243                 53.875
 Frequency:      1393.11                1423.23                1441.25
 Force Cnst:      1.4151                 1.9024                 1.6093
 Red. Mass:       1.2375                 1.5941                 1.3150
 IR Intens:      101.721                 78.546                 91.937
 Frequency:      1444.98                1465.02                1752.77
 Force Cnst:      1.6745                 2.1531                20.5320
 Red. Mass:       1.3611                 1.7027                11.3431
 IR Intens:       23.886                 61.455                370.890
 Frequency:      3062.89                3070.60                3099.44
 Force Cnst:      5.8683                 5.9207                 6.1562
 Red. Mass:       1.0617                 1.0658                 1.0877
 IR Intens:       30.494                  4.896                 31.896
 Frequency:      3114.78                3118.44                3123.91
 Force Cnst:      6.2484                 6.3175                 6.2566
 Red. Mass:       1.0931                 1.1026                 1.0882
 IR Intens:        8.245                  4.423                 11.559
 Frequency:      3787.86                3824.25                3835.56
 Force Cnst:      9.0121                 9.1918                 9.2479
 Red. Mass:       1.0661                 1.0667                 1.0669
 IR Intens:      112.875                155.343                132.182

 STANDARD THERMODYNAMIC QUANTITIES AT   298.15 K  AND     1.00 ATM

   This Molecule has  0 Imaginary Frequencies
   Zero point vibrational energy:       96.310 kcal/mol

   Atom    1 Element C  Has Mass   12.00000
   Atom    2 Element O  Has Mass   15.99491
   Atom    3 Element C  Has Mass   12.00000
   Atom    4 Element O  Has Mass   15.99491
   Atom    5 Element C  Has Mass   12.00000
   Atom    6 Element C  Has Mass   12.00000
   Atom    7 Element O  Has Mass   15.99491
   Atom    8 Element O  Has Mass   15.99491
   Atom    9 Element C  Has Mass   12.00000
   Atom   10 Element O  Has Mass   15.99491
   Atom   11 Element O  Has Mass   15.99491
   Atom   12 Element H  Has Mass    1.00783
   Atom   13 Element H  Has Mass    1.00783
   Atom   14 Element H  Has Mass    1.00783
   Atom   15 Element H  Has Mass    1.00783
   Atom   16 Element H  Has Mass    1.00783
   Atom   17 Element H  Has Mass    1.00783
   Atom   18 Element H  Has Mass    1.00783
   Atom   19 Element H  Has Mass    1.00783
   Atom   20 Element H  Has Mass    1.00783
   Molecular Mass:   165.039930 amu
   Principal axes and moments of inertia in amu*Bohr^2:
                             1           2           3
    Eigenvalues --     1071.79900  2814.01816  3514.73496
          X               0.94066     0.26519     0.21174
          Y              -0.29440     0.32739     0.89786
          Z              -0.16878     0.90691    -0.38603
   Rotational Symmetry Number is   1
   The Molecule is an Asymmetric Top
   Translational Enthalpy:        0.889 kcal/mol
   Rotational Enthalpy:           0.889 kcal/mol
   Vibrational Enthalpy:        102.406 kcal/mol
   gas constant (RT):             0.592 kcal/mol
   Translational Entropy:        41.211  cal/mol.K
   Rotational Entropy:           30.739  cal/mol.K
   Vibrational Entropy:          40.027  cal/mol.K

   Total Enthalpy:              104.776 kcal/mol
   Total Entropy:               111.977  cal/mol.K
 Total job time:  23388.75s(wall), 329176.99s(cpu)
        *  Thank you very much for using Q-Chem.  Have a nice day.  *
