 Q-Chem 5.4, Q-Chem, Inc., Pleasanton, CA (2021)
 Q-Chem 5.4.2 for Intel X86 EM64T Linux

User input:
--------------------------------------------------------------
$molecule
-1 2
O    3.3450422   -0.9650367   -0.6945158
C    2.3838751   -0.1809398    0.0029845
C    2.9120325    0.9021432    0.9386442
O    1.9644674    1.5430125    1.5350600
C    4.2649943    1.0836242    1.0309622
C    5.0102391    2.0830974    1.8263405
C    4.2265776    2.9925214    2.7640843
O    3.7445838    2.2395467    3.8421753
O    5.0640992    4.0012885    3.3116245
H    3.8717386   -1.4398888   -0.0431345
H    1.7234766   -0.8220042    0.5936893
H    1.7719028    0.3032342   -0.7581468
H    4.8898043    0.4886159    0.3782084
H    5.6603664    2.7116962    1.2170238
H    3.4136817    3.4536603    2.2040032
H    3.0296756    2.7352792    4.2564426
H    5.2260101    4.6639401    2.6299719
O    6.1519556    1.1863123    3.0439462
O    7.3375225    1.7256890    3.0713350
$end

$rem
BASIS = 6-311++G(2df,2p)
GUI = 2
JOB_TYPE = Frequency
METHOD = wB97M-V
SCF_ALGORITHM = DIIS_GDM
MAX_SCF_CYCLES = 400
SCF_CONVERGENCE = 6
THRESH = 11
solvent_method = SMD
$end

--------------------------------------------------------------

   22    -646.6900780379      5.34e-07  Convergence criterion met
 Total energy in the final basis set =     -646.6836545478
   17    -646.6900769699      3.26e-07  Convergence criterion met
 Total energy in the final basis set =     -646.6836533006
   17    -646.6900778842      3.20e-07  Convergence criterion met
 Total energy in the final basis set =     -646.6836545704
   17    -646.6900799202      3.20e-07  Convergence criterion met
 Total energy in the final basis set =     -646.6836559732
   17    -646.6900752237      4.28e-07  Convergence criterion met
 Total energy in the final basis set =     -646.6836521877
   17    -646.6900796471      3.22e-07  Convergence criterion met
 Total energy in the final basis set =     -646.6836559194
   17    -646.6900749648      4.11e-07  Convergence criterion met
 Total energy in the final basis set =     -646.6836517095
   17    -646.6900770909      3.21e-07  Convergence criterion met
 Frequency:      -337.81                  59.72                  96.34
 Force Cnst:      0.6202                 0.0157                 0.0452
 Red. Mass:       9.2242                 7.4941                 8.2631
 IR Intens:     1220.700                 10.010                 13.618
 Frequency:       110.54                 127.33                 137.45
 Force Cnst:      0.0259                 0.0405                 0.0378
 Red. Mass:       3.5916                 4.2376                 3.3997
 IR Intens:       27.352                 22.190                  4.754
 Frequency:       147.91                 188.54                 206.83
 Force Cnst:      0.0227                 0.0392                 0.1191
 Red. Mass:       1.7617                 1.8725                 4.7257
 IR Intens:       77.331                128.371                 16.017
 Frequency:       237.02                 252.02                 271.74
 Force Cnst:      0.1340                 0.0678                 0.2595
 Red. Mass:       4.0476                 1.8116                 5.9646
 IR Intens:       81.922                 63.574                100.221
 Frequency:       334.62                 350.07                 387.53
 Force Cnst:      0.1514                 0.1555                 0.2638
 Red. Mass:       2.2948                 2.1538                 2.9818
 IR Intens:      198.331                155.978                 63.750
 Frequency:       454.19                 511.06                 554.72
 Force Cnst:      0.6722                 1.2315                 0.9828
 Red. Mass:       5.5308                 8.0029                 5.4210
 IR Intens:       33.053                 10.661                 31.824
 Frequency:       604.63                 680.98                 735.99
 Force Cnst:      0.7367                 1.0477                 0.4512
 Red. Mass:       3.4204                 3.8348                 1.4139
 IR Intens:       15.073                 73.306                 94.362
 Frequency:       749.51                 856.19                 945.91
 Force Cnst:      1.3233                 1.6331                 1.0234
 Red. Mass:       3.9982                 3.7812                 1.9414
 IR Intens:      120.018                 34.178                369.213
 Frequency:       977.14                1020.38                1061.27
 Force Cnst:      1.0554                 1.6141                 3.3680
 Red. Mass:       1.8760                 2.6312                 5.0754
 IR Intens:       79.574                451.726                256.603
 Frequency:      1082.61                1120.97                1147.06
 Force Cnst:      2.9313                 1.3371                 1.5205
 Red. Mass:       4.2449                 1.8060                 1.9613
 IR Intens:      243.848                154.163                235.993
 Frequency:      1193.97                1211.26                1220.33
 Force Cnst:      1.3100                 0.9796                 1.0459
 Red. Mass:       1.5596                 1.1333                 1.1920
 IR Intens:      140.177                 24.455                178.191
 Frequency:      1243.40                1284.59                1308.89
 Force Cnst:      6.7198                 1.3738                 1.5081
 Red. Mass:       7.3771                 1.4130                 1.4941
 IR Intens:       50.201                 85.846                 47.018
 Frequency:      1358.02                1390.07                1395.25
 Force Cnst:      1.4775                 1.5140                 1.7981
 Red. Mass:       1.3597                 1.3299                 1.5677
 IR Intens:      124.877                201.930                133.456
 Frequency:      1428.88                1452.11                1459.26
 Force Cnst:      2.6455                 2.2215                 1.3961
 Red. Mass:       2.1992                 1.7881                 1.1127
 IR Intens:      192.487                103.575                 54.500
 Frequency:      1556.50                3042.35                3091.69
 Force Cnst:      6.3332                 5.8048                 6.1081
 Red. Mass:       4.4369                 1.0644                 1.0846
 IR Intens:     1568.780                 78.899                 25.346
 Frequency:      3105.83                3113.52                3187.56
 Force Cnst:      6.2470                 6.2133                 6.5043
 Red. Mass:       1.0992                 1.0879                 1.0865
 IR Intens:       29.196                 20.877                  5.496
 Frequency:      3822.55                3827.49                3832.37
 Force Cnst:      9.1795                 9.2067                 9.2271
 Red. Mass:       1.0663                 1.0667                 1.0663
 IR Intens:      133.543                134.604                 95.904

 STANDARD THERMODYNAMIC QUANTITIES AT   298.15 K  AND     1.00 ATM

   This Molecule has  1 Imaginary Frequencies
   Zero point vibrational energy:       85.683 kcal/mol

   Atom    1 Element O  Has Mass   15.99491
   Atom    2 Element C  Has Mass   12.00000
   Atom    3 Element C  Has Mass   12.00000
   Atom    4 Element O  Has Mass   15.99491
   Atom    5 Element C  Has Mass   12.00000
   Atom    6 Element C  Has Mass   12.00000
   Atom    7 Element C  Has Mass   12.00000
   Atom    8 Element O  Has Mass   15.99491
   Atom    9 Element O  Has Mass   15.99491
   Atom   10 Element H  Has Mass    1.00783
   Atom   11 Element H  Has Mass    1.00783
   Atom   12 Element H  Has Mass    1.00783
   Atom   13 Element H  Has Mass    1.00783
   Atom   14 Element H  Has Mass    1.00783
   Atom   15 Element H  Has Mass    1.00783
   Atom   16 Element H  Has Mass    1.00783
   Atom   17 Element H  Has Mass    1.00783
   Atom   18 Element O  Has Mass   15.99491
   Atom   19 Element O  Has Mass   15.99491
   Molecular Mass:   164.032100 amu
   Principal axes and moments of inertia in amu*Bohr^2:
                             1           2           3
    Eigenvalues --     1094.96103  2881.04340  3609.41632
          X               0.57190     0.79409    -0.20581
          Y               0.53279    -0.55033    -0.64287
          Z               0.62375    -0.25800     0.73781
   Rotational Symmetry Number is   1
   The Molecule is an Asymmetric Top
   Translational Enthalpy:        0.889 kcal/mol
   Rotational Enthalpy:           0.889 kcal/mol
   Vibrational Enthalpy:         91.614 kcal/mol
   gas constant (RT):             0.592 kcal/mol
   Translational Entropy:        41.193  cal/mol.K
   Rotational Entropy:           30.810  cal/mol.K
   Vibrational Entropy:          36.910  cal/mol.K

   Total Enthalpy:               93.984 kcal/mol
   Total Entropy:               108.914  cal/mol.K
 Total job time:  20218.80s(wall), 282012.01s(cpu)
        *  Thank you very much for using Q-Chem.  Have a nice day.  *
 Q-Chem 5.4, Q-Chem, Inc., Pleasanton, CA (2021)
 Q-Chem 5.4.2 for Intel X86 EM64T Linux

User input:
--------------------------------------------------------------

$rem
JOBTYPE = ts
SCF_GUESS = read
GEOM_OPT_HESSIAN = read
MAX_SCF_CYCLES = 350
GEOM_OPT_DMAX = 60
GEOM_OPT_MAX_CYCLES = 250
METHOD = wB97M-v
BASIS = 6-311++G(2df,2p)
SCF_CONVERGENCE = 7
THRESH = 12
SCF_ALGORITHM = DIIS_GDM
solvent_method = SMD
$end

$molecule
read
$end
--------------------------------------------------------------

   25    -646.7032050286      7.68e-08  Convergence criterion met
 Total energy in the final basis set =     -646.6965612205
   25    -646.7032697631      7.69e-08  Convergence criterion met
 Total energy in the final basis set =     -646.6966258079
   25    -646.7033127680      8.60e-08  Convergence criterion met
 Total energy in the final basis set =     -646.6966694317
   25    -646.7033385660      7.61e-08  Convergence criterion met
 Total energy in the final basis set =     -646.6966958729
   25    -646.7033495520      7.85e-08  Convergence criterion met
 Total energy in the final basis set =     -646.6967080256
   25    -646.7033510973      7.74e-08  Convergence criterion met
 Total energy in the final basis set =     -646.6967108680

             Standard Nuclear Orientation (Angstroms)
    I     Atom           X                Y                Z
 ----------------------------------------------------------------
    1      O       3.3780930633    -0.8670542535    -0.7584593823
    2      C       2.4045667832    -0.2057638793     0.0330770363
    3      C       2.9114190252     0.8494975940     1.0079559612
    4      O       2.0288218302     1.3632576435     1.7290128718
    5      C       4.2881066016     1.1866759569     0.9867380984
    6      C       4.9211938580     2.1123836838     1.7978508365
    7      C       4.1994887908     3.0442233952     2.7445228529
    8      O       3.7377313744     2.3542684929     3.8730306547
    9      O       5.0710388159     4.0644577710     3.2134958243
   10      H       3.9308318609    -1.4003518067    -0.1777375444
   11      H       1.8204739362    -0.9220890511     0.6159888146
   12      H       1.7212814531     0.2904804043    -0.6559550670
   13      H       4.8931488162     0.6963009446     0.2377052893
   14      H       5.8660112054     2.5124937361     1.4489571326
   15      H       3.3644959550     3.5049850922     2.2109743091
   16      H       2.9741633571     2.8303273225     4.2172704656
   17      H       5.2096280591     4.6970643217     2.4991943373
   18      O       6.0057294575     1.1553311875     3.1444801112
   19      O       7.2658211568     1.4393030445     2.9825961980
 ----------------------------------------------------------------

   25    -646.7033513743      7.66e-08  Convergence criterion met
 Total energy in the final basis set =     -646.6967115343
 Final energy is   -646.696711534258
 **  OPTIMIZATION CONVERGED  **

                    Orbital Energies (a.u.)
 --------------------------------------------------------------

 Alpha MOs
 -- Occupied --
-19.3814 -19.3628 -19.3430 -19.3375 -19.3370 -19.2955 -10.4461 -10.4133
-10.3833 -10.3804 -10.3091  -1.2634  -1.1971  -1.1586  -1.1386  -1.1299
 -0.9238  -0.8821  -0.8397  -0.7931  -0.7245  -0.6581  -0.6439  -0.6374
 -0.6104  -0.5791  -0.5676  -0.5620  -0.5536  -0.5432  -0.5279  -0.5147
 -0.4951  -0.4873  -0.4695  -0.4603  -0.4470  -0.4213  -0.4065  -0.3972
 -0.3613  -0.3419  -0.3360  -0.2893

 Beta MOs
 -- Occupied --
-19.3669 -19.3472 -19.3429 -19.3375 -19.3370 -19.2956 -10.4461 -10.4133
-10.3835 -10.3804 -10.3091  -1.2338  -1.1969  -1.1586  -1.1388  -1.1299
 -0.9175  -0.8510  -0.8348  -0.7930  -0.7240  -0.6569  -0.6439  -0.6369
 -0.6097  -0.5787  -0.5660  -0.5451  -0.5355  -0.5220  -0.5146  -0.4937
 -0.4847  -0.4741  -0.4653  -0.4596  -0.4460  -0.4204  -0.4065  -0.3963
 -0.3502  -0.3363  -0.2757

          Ground-State Mulliken Net Atomic Charges

     Atom                 Charge (a.u.)    Spin (a.u.)
  --------------------------------------------------------
      1 O                    -0.443809       0.000008
      2 C                    -0.361827       0.001048
      3 C                     0.156516      -0.007688
      4 O                    -0.615582      -0.005155
      5 C                    -0.300968      -0.009815
      6 C                    -0.034146      -0.000512
      7 C                    -0.132109       0.001264
      8 O                    -0.409190       0.002624
      9 O                    -0.480267      -0.000997
     10 H                     0.331416      -0.000040
     11 H                     0.199825      -0.000139
     12 H                     0.203887      -0.000236
     13 H                     0.257364      -0.000108
     14 H                     0.282859      -0.001857
     15 H                     0.260529      -0.000614
     16 H                     0.334344       0.001425
     17 H                     0.323600       0.000139
     18 O                    -0.172748       0.470776
     19 O                    -0.399694       0.549876
  --------------------------------------------------------
  Sum of atomic charges =    -1.000000

                    Cartesian Multipole Moments
 -----------------------------------------------------------------
    Charge (ESU x 10^10)
                -4.8032
    Dipole Moment (Debye)
         X     -25.1169      Y      -4.8139      Z     -14.2090
       Tot      29.2563
    Quadrupole Moments (Debye-Ang)
        XX    -224.3276     XY     -28.8357     YY     -60.9227
        XZ     -85.4220     YZ     -21.7835     ZZ    -122.8466

 Total job time:  7060.79s(wall), 98266.19s(cpu)
        *  Thank you very much for using Q-Chem.  Have a nice day.  *
