 Q-Chem 5.4, Q-Chem, Inc., Pleasanton, CA (2021)
 Q-Chem 5.4.1 for Intel X86 EM64T Linux

User input:
--------------------------------------------------------------
$molecule
-1 2
O         0.9284835487   -0.0596839701   -0.1810431746
C         2.3131923298   -0.2921500952    0.0621415644
C         2.8637295024    0.7711457937    0.9956251965
O         2.0083076093    1.1789315408    1.8919043832
C         4.1461527359    1.1891703249    0.8301371856
C         4.8916442740    2.1547542609    1.6697487777
C         4.1453428704    2.9311834769    2.7597746330
O         3.1419828317    3.7283505460    2.1701729729
O         3.6238834205    2.0919120124    3.7599017685
H         0.6195941290    0.3948848129    0.6184630810
H         2.8371004326   -0.2988503543   -0.8908679145
H         2.4466469469   -1.2698376979    0.5377011511
H         4.6919049552    0.7971134587   -0.0187298086
H         5.4495997917    2.8711160488    1.0676099234
H         4.8474288515    3.6065047926    3.2436745105
H         2.4735273355    3.0974834859    1.8460025851
H         2.9366336873    1.5606830351    3.2917458927
O         5.9621452258    1.3862348965    2.3812031522
O         6.9640896214    2.1407573313    2.7310731201
$end

$rem
BASIS = 6-311++G(2df,2p)
GUI = 2
JOB_TYPE = Frequency
METHOD = wB97M-V
SOLVENT_METHOD = SMD
SCF_ALGORITHM = DIIS_GDM
MAX_SCF_CYCLES = 400
SCF_CONVERGENCE = 7
THRESH = 12
$end
--------------------------------------------------------------

   23    -646.7286755546      9.59e-08  Convergence criterion met
 Total energy in the final basis set =     -646.7240167159
   19    -646.7286751380      4.97e-08  Convergence criterion met
 Total energy in the final basis set =     -646.7240160762
   19    -646.7286746353      4.99e-08  Convergence criterion met
 Total energy in the final basis set =     -646.7240160188
   19    -646.7286753308      4.96e-08  Convergence criterion met
 Total energy in the final basis set =     -646.7240163869
   19    -646.7286751696      5.00e-08  Convergence criterion met
 Total energy in the final basis set =     -646.7240164340
   19    -646.7286747321      4.94e-08  Convergence criterion met
 Total energy in the final basis set =     -646.7240158679
   19    -646.7286748523      5.02e-08  Convergence criterion met
 Total energy in the final basis set =     -646.7240160377
   19    -646.7286742010      4.99e-08  Convergence criterion met
 Total energy in the final basis set =     -646.7240163984
   19    -646.7286753101      6.86e-08  Convergence criterion met
 Total energy in the final basis set =     -646.7240166413
   19    -646.7286750504      6.31e-08  Convergence criterion met
 Total energy in the final basis set =     -646.7240161556
   19    -646.7286749039      6.41e-08  Convergence criterion met
 Total energy in the final basis set =     -646.7240161214
   19    -646.7286751813      5.47e-08  Convergence criterion met
 Total energy in the final basis set =     -646.7240163993
   19    -646.7286752826      5.12e-08  Convergence criterion met
 Total energy in the final basis set =     -646.7240163872
   19    -646.7286754059      6.24e-08  Convergence criterion met
 Total energy in the final basis set =     -646.7240165945
   19    -646.7286755149      6.04e-08  Convergence criterion met
 Total energy in the final basis set =     -646.7240166489

                    Orbital Energies (a.u.)
 --------------------------------------------------------------

 Alpha MOs
 -- Occupied --
-19.4526 -19.4062 -19.3359 -19.3274 -19.3265 -19.2839 -10.4406 -10.3987
-10.3912 -10.3742 -10.3062  -1.3315  -1.1946  -1.1543  -1.1200  -1.1044
 -1.0056  -0.8826  -0.8373  -0.7904  -0.7310  -0.6540  -0.6515  -0.6383
 -0.6187  -0.6071  -0.5959  -0.5808  -0.5624  -0.5582  -0.5216  -0.5089
 -0.4930  -0.4854  -0.4709  -0.4580  -0.4318  -0.4170  -0.4002  -0.3961
 -0.3869  -0.3714  -0.3483  -0.2965

 Beta MOs
 -- Occupied --
-19.4414 -19.3882 -19.3359 -19.3274 -19.3265 -19.2839 -10.4403 -10.3991
-10.3912 -10.3742 -10.3062  -1.3047  -1.1943  -1.1543  -1.1198  -1.1044
 -0.9780  -0.8745  -0.8320  -0.7897  -0.7273  -0.6497  -0.6405  -0.6332
 -0.6063  -0.6003  -0.5810  -0.5712  -0.5609  -0.5326  -0.5136  -0.4948
 -0.4921  -0.4822  -0.4699  -0.4574  -0.4308  -0.4051  -0.3970  -0.3843
 -0.3731  -0.3480  -0.2960

          Ground-State Mulliken Net Atomic Charges

     Atom                 Charge (a.u.)    Spin (a.u.)
  --------------------------------------------------------
      1 O                    -0.466725      -0.000037
      2 C                    -0.504438      -0.000425
      3 C                     0.153062       0.000882
      4 O                    -0.727428      -0.000194
      5 C                     0.025064       0.001832
      6 C                    -0.409125      -0.007430
      7 C                    -0.283095       0.012332
      8 O                    -0.420322       0.002389
      9 O                    -0.474400       0.001961
     10 H                     0.343042       0.000018
     11 H                     0.198117       0.000175
     12 H                     0.180632      -0.000164
     13 H                     0.278505      -0.001013
     14 H                     0.295976       0.005173
     15 H                     0.265029      -0.000450
     16 H                     0.344964      -0.000065
     17 H                     0.382776      -0.000198
     18 O                     0.073023       0.340681
     19 O                    -0.254658       0.644532
  --------------------------------------------------------
  Sum of atomic charges =    -1.000000

                    Cartesian Multipole Moments
 -----------------------------------------------------------------
    Charge (ESU x 10^10)
                -4.8032
    Dipole Moment (Debye)
         X     -15.7993      Y      -8.1440      Z     -11.3206
       Tot      21.0737
    Quadrupole Moments (Debye-Ang)
        XX    -145.1048     XY     -30.7131     YY     -90.2074
        XZ     -51.1780     YZ     -23.7460     ZZ    -106.9359

             Standard Nuclear Orientation (Angstroms)
    I     Atom           X                Y                Z
 ----------------------------------------------------------------
    1      O       0.9284835487    -0.0596839701    -0.1810431746
    2      C       2.3131923298    -0.2921500952     0.0621415644
    3      C       2.8637295024     0.7711457937     0.9956251965
    4      O       2.0083076093     1.1789315408     1.8919043832
    5      C       4.1461527359     1.1891703249     0.8301371856
    6      C       4.8916442740     2.1547542609     1.6697487777
    7      C       4.1453428704     2.9311834769     2.7597746330
    8      O       3.1419828317     3.7283505460     2.1701729729
    9      O       3.6238834205     2.0919120124     3.7599017685
   10      H       0.6195941290     0.3948848129     0.6184630810
   11      H       2.8371004326    -0.2988503543    -0.8908679145
   12      H       2.4466469469    -1.2698376979     0.5377011511
   13      H       4.6919049552     0.7971134587    -0.0187298086
   14      H       5.4495997917     2.8711160488     1.0676099234
   15      H       4.8474288515     3.6065047926     3.2436745105
   16      H       2.4735273355     3.0974834859     1.8460025851
   17      H       2.9366336873     1.5606830351     3.2917458927
   18      O       5.9621452258     1.3862348965     2.3812031522
   19      O       6.9640896214     2.1407573313     2.7310731201
 ----------------------------------------------------------------

 Frequency:        33.07                  58.06                  86.50
 Force Cnst:      0.0029                 0.0168                 0.0442
 Red. Mass:       4.4412                 8.4408                10.0334
 IR Intens:       15.905                  5.677                  3.072
 Frequency:       103.26                 124.22                 196.10
 Force Cnst:      0.0307                 0.0558                 0.1119
 Red. Mass:       4.8919                 6.1372                 4.9384
 IR Intens:        0.963                 12.617                  2.746
 Frequency:       234.23                 257.49                 300.33
 Force Cnst:      0.2384                 0.3230                 0.2265
 Red. Mass:       7.3763                 8.2676                 4.2616
 IR Intens:        0.664                 13.445                 74.216
 Frequency:       340.72                 360.56                 434.25
 Force Cnst:      0.4747                 0.2794                 0.1453
 Red. Mass:       6.9401                 3.6471                 1.3080
 IR Intens:       15.870                 92.571                164.492
 Frequency:       458.60                 530.19                 551.88
 Force Cnst:      0.5565                 0.5261                 0.5891
 Red. Mass:       4.4912                 3.1765                 3.2827
 IR Intens:       12.069                 62.831                  7.562
 Frequency:       588.14                 603.96                 698.37
 Force Cnst:      0.5861                 0.3612                 1.1545
 Red. Mass:       2.8759                 1.6808                 4.0177
 IR Intens:       56.868                149.848                 60.753
 Frequency:       732.43                 791.67                 814.99
 Force Cnst:      0.4229                 0.4217                 1.4168
 Red. Mass:       1.3381                 1.1421                 3.6204
 IR Intens:      108.089                211.781                 59.595
 Frequency:       857.85                 889.09                 962.28
 Force Cnst:      1.9139                 3.5094                 2.3551
 Red. Mass:       4.4141                 7.5352                 4.3167
 IR Intens:       28.542                115.894                 89.854
 Frequency:      1006.42                1059.91                1125.62
 Force Cnst:      1.1253                 3.5144                 1.4554
 Red. Mass:       1.8857                 5.3097                 1.9496
 IR Intens:       40.400                189.972                 78.345
 Frequency:      1187.69                1209.65                1223.31
 Force Cnst:      1.2863                 1.3718                 1.2054
 Red. Mass:       1.5477                 1.5912                 1.3672
 IR Intens:      155.183                238.712                116.745
 Frequency:      1240.56                1270.87                1291.77
 Force Cnst:      1.1119                13.1967                 1.9507
 Red. Mass:       1.2263                13.8680                 1.9842
 IR Intens:      203.080                 22.544                114.931
 Frequency:      1316.46                1317.17                1364.15
 Force Cnst:      1.2563                 1.4116                 1.8654
 Red. Mass:       1.2303                 1.3809                 1.7014
 IR Intens:       42.876                197.199                236.484
 Frequency:      1365.84                1419.55                1437.60
 Force Cnst:      3.4046                 1.6916                 2.0975
 Red. Mass:       3.0976                 1.4248                 1.7226
 IR Intens:       64.146                210.344                226.067
 Frequency:      1467.75                1480.64                1510.71
 Force Cnst:      1.9800                 1.3983                 1.8618
 Red. Mass:       1.5599                 1.0825                 1.3846
 IR Intens:      234.873                 11.657                 46.657
 Frequency:      1633.87                3019.23                3096.59
 Force Cnst:      9.0918                 5.7463                 6.1306
 Red. Mass:       5.7805                 1.0699                 1.0851
 IR Intens:      533.134                 65.666                 16.540
 Frequency:      3122.94                3123.37                3179.57
 Force Cnst:      6.2573                 6.2867                 6.4844
 Red. Mass:       1.0890                 1.0938                 1.0886
 IR Intens:       82.410                 36.596                 16.939
 Frequency:      3334.70                3612.36                3694.04
 Force Cnst:      7.0018                 8.1975                 8.5614
 Red. Mass:       1.0687                 1.0662                 1.0649
 IR Intens:      821.688                417.522                194.040

 STANDARD THERMODYNAMIC QUANTITIES AT   298.15 K  AND     1.00 ATM

   This Molecule has  0 Imaginary Frequencies
   Zero point vibrational energy:       88.806 kcal/mol

   Atom    1 Element O  Has Mass   15.99491
   Atom    2 Element C  Has Mass   12.00000
   Atom    3 Element C  Has Mass   12.00000
   Atom    4 Element O  Has Mass   15.99491
   Atom    5 Element C  Has Mass   12.00000
   Atom    6 Element C  Has Mass   12.00000
   Atom    7 Element C  Has Mass   12.00000
   Atom    8 Element O  Has Mass   15.99491
   Atom    9 Element O  Has Mass   15.99491
   Atom   10 Element H  Has Mass    1.00783
   Atom   11 Element H  Has Mass    1.00783
   Atom   12 Element H  Has Mass    1.00783
   Atom   13 Element H  Has Mass    1.00783
   Atom   14 Element H  Has Mass    1.00783
   Atom   15 Element H  Has Mass    1.00783
   Atom   16 Element H  Has Mass    1.00783
   Atom   17 Element H  Has Mass    1.00783
   Atom   18 Element O  Has Mass   15.99491
   Atom   19 Element O  Has Mass   15.99491
   Molecular Mass:   164.032100 amu
   Principal axes and moments of inertia in amu*Bohr^2:
                             1           2           3
    Eigenvalues --      945.84372  2691.69983  3205.20072
          X               0.77786    -0.62008    -0.10218
          Y               0.41836     0.63227    -0.65209
          Z               0.46895     0.46448     0.75123
   Rotational Symmetry Number is   1
   The Molecule is an Asymmetric Top
   Translational Enthalpy:        0.889 kcal/mol
   Rotational Enthalpy:           0.889 kcal/mol
   Vibrational Enthalpy:         94.193 kcal/mol
   gas constant (RT):             0.592 kcal/mol
   Translational Entropy:        41.193  cal/mol.K
   Rotational Entropy:           30.479  cal/mol.K
   Vibrational Entropy:          35.426  cal/mol.K

   Total Enthalpy:               96.563 kcal/mol
   Total Entropy:               107.098  cal/mol.K
 Total job time:  27611.15s(wall), 389056.01s(cpu)
        *  Thank you very much for using Q-Chem.  Have a nice day.  *
