 Q-Chem 5.4, Q-Chem, Inc., Pleasanton, CA (2021)
 Q-Chem 5.4.1 for Intel X86 EM64T Linux

User input:
--------------------------------------------------------------
$molecule
-1 2
O         0.8966093353   -0.0781910383   -0.1007625725
C         2.2946283263   -0.2831900607    0.0512356949
C         2.8683707457    0.8009128743    0.9606138869
O         1.9902488622    1.2635266730    1.8197121826
C         4.1681738527    1.1765761918    0.8231659976
C         4.9043787652    2.1550688574    1.6634975625
C         4.1329153512    2.9223173133    2.7488611966
O         3.1189513315    3.7006019531    2.1538834385
O         3.6321580698    2.0649397469    3.7474758772
H         0.6821832907    0.4432052101    0.7030102909
H         2.7717462889   -0.2744828469   -0.9336792996
H         2.4892587045   -1.2661656492    0.5094950118
H         4.7404434082    0.7324023010    0.0116875100
H         5.4682915872    2.8777507595    1.0649472214
H         4.8284065915    3.6087692472    3.2391862282
H         2.4622876203    3.0230379514    1.8601330490
H         2.9314549619    1.5495263429    3.2727147503
O         5.9693309931    1.3897517441    2.3860515671
O         6.9415520135    2.1733461290    2.7850094069
$end

$rem
BASIS = 6-311++G(2df,2p)
GUI = 2
JOB_TYPE = Optimization
METHOD = wB97M-V
SCF_ALGORITHM = DIIS_GDM
MAX_SCF_CYCLES = 400
GEOM_OPT_MAX_CYCLES = 150
SCF_CONVERGENCE = 7
THRESH = 12
Solvent_method = SMD
$end
--------------------------------------------------------------

   23    -646.7276298495      8.29e-08  Convergence criterion met
 Total energy in the final basis set =     -646.7231063891
   20    -646.7281382313      7.49e-08  Convergence criterion met
 Total energy in the final basis set =     -646.7235000851
   20    -646.7279704860      7.19e-08  Convergence criterion met
 Total energy in the final basis set =     -646.7233085392
   20    -646.7285130062      7.20e-08  Convergence criterion met
 Total energy in the final basis set =     -646.7239028171
   20    -646.7276646834      6.46e-08  Convergence criterion met
 Total energy in the final basis set =     -646.7229844314
   19    -646.7285994002      9.55e-08  Convergence criterion met
 Total energy in the final basis set =     -646.7239673352
   20    -646.7286063814      7.42e-08  Convergence criterion met
 Total energy in the final basis set =     -646.7239720690
   20    -646.7286345696      6.66e-08  Convergence criterion met
 Total energy in the final basis set =     -646.7239987560
   19    -646.7286432683      9.31e-08  Convergence criterion met
 Total energy in the final basis set =     -646.7240035956
   19    -646.7286711147      6.74e-08  Convergence criterion met
 Total energy in the final basis set =     -646.7240146558
   20    -646.7286761389      6.62e-08  Convergence criterion met
 Total energy in the final basis set =     -646.7240159069

             Standard Nuclear Orientation (Angstroms)
    I     Atom           X                Y                Z
 ----------------------------------------------------------------
    1      O       0.9284835487    -0.0596839701    -0.1810431746
    2      C       2.3131923298    -0.2921500952     0.0621415644
    3      C       2.8637295024     0.7711457937     0.9956251965
    4      O       2.0083076093     1.1789315408     1.8919043832
    5      C       4.1461527359     1.1891703249     0.8301371856
    6      C       4.8916442740     2.1547542609     1.6697487777
    7      C       4.1453428704     2.9311834769     2.7597746330
    8      O       3.1419828317     3.7283505460     2.1701729729
    9      O       3.6238834205     2.0919120124     3.7599017685
   10      H       0.6195941290     0.3948848129     0.6184630810
   11      H       2.8371004326    -0.2988503543    -0.8908679145
   12      H       2.4466469469    -1.2698376979     0.5377011511
   13      H       4.6919049552     0.7971134587    -0.0187298086
   14      H       5.4495997917     2.8711160488     1.0676099234
   15      H       4.8474288515     3.6065047926     3.2436745105
   16      H       2.4735273355     3.0974834859     1.8460025851
   17      H       2.9366336873     1.5606830351     3.2917458927
   18      O       5.9621452258     1.3862348965     2.3812031522
   19      O       6.9640896214     2.1407573313     2.7310731201
 ----------------------------------------------------------------

   19    -646.7286755537      5.88e-08  Convergence criterion met
 Total energy in the final basis set =     -646.7240167151
 Final energy is   -646.724016715054
 **  OPTIMIZATION CONVERGED  **

                    Orbital Energies (a.u.)
 --------------------------------------------------------------

 Alpha MOs
 -- Occupied --
-19.4526 -19.4062 -19.3359 -19.3274 -19.3265 -19.2839 -10.4406 -10.3987
-10.3912 -10.3742 -10.3062  -1.3313  -1.1946  -1.1543  -1.1200  -1.1044
 -1.0057  -0.8826  -0.8373  -0.7904  -0.7310  -0.6540  -0.6514  -0.6382
 -0.6187  -0.6071  -0.5959  -0.5808  -0.5624  -0.5582  -0.5216  -0.5089
 -0.4930  -0.4854  -0.4710  -0.4580  -0.4318  -0.4170  -0.4002  -0.3961
 -0.3869  -0.3714  -0.3483  -0.2965

 Beta MOs
 -- Occupied --
-19.4413 -19.3882 -19.3359 -19.3274 -19.3265 -19.2839 -10.4403 -10.3991
-10.3912 -10.3742 -10.3062  -1.3045  -1.1943  -1.1543  -1.1198  -1.1044
 -0.9781  -0.8746  -0.8320  -0.7897  -0.7273  -0.6497  -0.6405  -0.6332
 -0.6063  -0.6003  -0.5810  -0.5712  -0.5608  -0.5326  -0.5136  -0.4948
 -0.4921  -0.4822  -0.4699  -0.4574  -0.4308  -0.4051  -0.3970  -0.3843
 -0.3731  -0.3480  -0.2960

          Ground-State Mulliken Net Atomic Charges

     Atom                 Charge (a.u.)    Spin (a.u.)
  --------------------------------------------------------
      1 O                    -0.466725      -0.000037
      2 C                    -0.504431      -0.000423
      3 C                     0.153099       0.000870
      4 O                    -0.727415      -0.000198
      5 C                     0.025142       0.001856
      6 C                    -0.409324      -0.007452
      7 C                    -0.283003       0.012342
      8 O                    -0.420326       0.002389
      9 O                    -0.474381       0.001958
     10 H                     0.343043       0.000018
     11 H                     0.198120       0.000175
     12 H                     0.180634      -0.000165
     13 H                     0.278505      -0.001015
     14 H                     0.295985       0.005183
     15 H                     0.265041      -0.000447
     16 H                     0.344959      -0.000065
     17 H                     0.382765      -0.000199
     18 O                     0.072939       0.340591
     19 O                    -0.254627       0.644618
  --------------------------------------------------------
  Sum of atomic charges =    -1.000000

                    Cartesian Multipole Moments
 -----------------------------------------------------------------
    Charge (ESU x 10^10)
                -4.8032
    Dipole Moment (Debye)
         X     -15.7996      Y      -8.1437      Z     -11.3220
       Tot      21.0745
    Quadrupole Moments (Debye-Ang)
        XX    -145.1049     XY     -30.7101     YY     -90.2063
        XZ     -51.1875     YZ     -23.7480     ZZ    -106.9432

 Total job time:  3000.83s(wall), 42462.88s(cpu)
        *  Thank you very much for using Q-Chem.  Have a nice day.  *
