 Q-Chem 5.4, Q-Chem, Inc., Pleasanton, CA (2021)
 Q-Chem 5.4.1 for Intel X86 EM64T Linux

User input:
--------------------------------------------------------------
$molecule
0 2
C        -0.0946018658   -0.2862875634    0.6584936930
C        -0.9326906499   -1.0061475377    1.7100632223
C        -1.8049912755   -2.0592312116    1.0991852543
C        -2.2677558347   -1.9023689136   -0.1532427075
C        -1.9730784569   -0.6987579639   -0.8846737787
C        -1.0618262935    0.2009376215   -0.3951239502
C        -0.7389229415    1.4858086963   -1.0928020472
H         0.4026426038    0.5606858408    1.1328384958
H        -0.3165609268   -1.3998000679    2.5146230562
H        -2.0650997134   -2.9247158149    1.6922010420
H        -2.9196955240   -2.6409021586   -0.5990721757
H        -2.5357727604   -0.4668139355   -1.7797943829
H        -1.4514898466    1.6798452780   -1.8951024852
O         0.6011408131    1.4552179675   -1.5928950157
H        -0.7759790141    2.3107298853   -0.3838444184
H         0.6397831435    0.8067889401   -2.3052263705
O         0.8605859997   -1.1965739121    0.1325468757
H         1.3882957713   -0.7189683985   -0.5180206375
O        -1.6841331169    0.0743227755    2.3022829550
O        -2.3935963961    0.6843215779    1.2697162947
$end

$rem
BASIS = 6-311++G(2df,2p)
GUI = 2
JOB_TYPE = Frequency
METHOD = wB97M-V
SOLVENT_METHOD = SMD
SCF_ALGORITHM = DIIS_GDM
MAX_SCF_CYCLES = 400
SCF_CONVERGENCE = 7
THRESH = 12
UNRESTRICTED = 1
SYMMETRY_IGNORE = 1
$end
--------------------------------------------------------------

   26    -572.8703521319      5.93e-08  Convergence criterion met
 Total energy in the final basis set =     -572.8654446863
   24    -572.8703514550      5.79e-08  Convergence criterion met
 Total energy in the final basis set =     -572.8654436628
   24    -572.8703509756      6.15e-08  Convergence criterion met
 Total energy in the final basis set =     -572.8654438462
   24    -572.8703509046      6.18e-08  Convergence criterion met
 Total energy in the final basis set =     -572.8654436992
   24    -572.8703513642      5.87e-08  Convergence criterion met
 Total energy in the final basis set =     -572.8654436567
   24    -572.8703512074      6.08e-08  Convergence criterion met
 Total energy in the final basis set =     -572.8654437899
   24    -572.8703512578      5.88e-08  Convergence criterion met
 Total energy in the final basis set =     -572.8654437760
   24    -572.8703513751      5.99e-08  Convergence criterion met
 Total energy in the final basis set =     -572.8654440570
   24    -572.8703518479      6.00e-08  Convergence criterion met
 Total energy in the final basis set =     -572.8654442435
   24    -572.8703520766      5.92e-08  Convergence criterion met
 Total energy in the final basis set =     -572.8654445192
   24    -572.8703517238      6.10e-08  Convergence criterion met
 Total energy in the final basis set =     -572.8654443900
   24    -572.8703518221      5.99e-08  Convergence criterion met
 Total energy in the final basis set =     -572.8654444070
   24    -572.8703521305      5.98e-08  Convergence criterion met
 Total energy in the final basis set =     -572.8654446544
   24    -572.8703525040      6.02e-08  Convergence criterion met
 Total energy in the final basis set =     -572.8654448616
   24    -572.8703515343      6.03e-08  Convergence criterion met
 Total energy in the final basis set =     -572.8654442856

                    Orbital Energies (a.u.)
 --------------------------------------------------------------

 Alpha MOs
 -- Occupied --
-19.4052 -19.3849 -19.3472 -19.3443 -10.4084 -10.4066 -10.3930 -10.3860
-10.3712 -10.3612 -10.3583  -1.2662  -1.1715  -1.1587  -1.0052  -0.9834
 -0.8995  -0.8603  -0.8082  -0.7492  -0.7155  -0.6668  -0.6508  -0.6229
 -0.5996  -0.5873  -0.5807  -0.5693  -0.5553  -0.5459  -0.5243  -0.5093
 -0.5008  -0.4691  -0.4520  -0.4501  -0.4378  -0.4099  -0.4042  -0.3903
 -0.3531  -0.3146

 Beta MOs
 -- Occupied --
-19.4028 -19.3700 -19.3474 -19.3444 -10.4085 -10.4062 -10.3930 -10.3864
-10.3661 -10.3599 -10.3579  -1.2524  -1.1714  -1.1588  -0.9894  -0.9735
 -0.8967  -0.8526  -0.8051  -0.7459  -0.7122  -0.6604  -0.6486  -0.6201
 -0.5951  -0.5821  -0.5733  -0.5631  -0.5538  -0.5446  -0.5177  -0.5031
 -0.4883  -0.4616  -0.4480  -0.4378  -0.4255  -0.4011  -0.3897  -0.3623
 -0.3284

          Ground-State Mulliken Net Atomic Charges

     Atom                 Charge (a.u.)    Spin (a.u.)
  --------------------------------------------------------
      1 C                    -0.158332       0.039760
      2 C                    -0.326995      -0.005743
      3 C                    -0.149598       0.211347
      4 C                    -0.368177      -0.069801
      5 C                    -0.671751       0.373102
      6 C                     0.585076      -0.098886
      7 C                    -0.410932      -0.010529
      8 H                     0.328974      -0.000410
      9 H                     0.267448       0.002349
     10 H                     0.322947      -0.005899
     11 H                     0.297006       0.003374
     12 H                     0.302890      -0.006455
     13 H                     0.233779       0.000423
     14 O                    -0.392224      -0.003350
     15 H                     0.225158      -0.000941
     16 H                     0.325333      -0.000559
     17 O                    -0.400146      -0.000974
     18 H                     0.341983       0.001311
     19 O                    -0.087878       0.074967
     20 O                    -0.264562       0.496913
  --------------------------------------------------------
  Sum of atomic charges =     0.000000

                    Cartesian Multipole Moments
 -----------------------------------------------------------------
    Charge (ESU x 10^10)
                 0.0000
    Dipole Moment (Debye)
         X       0.8501      Y      -2.7068      Z      -4.8450
       Tot       5.6146
    Quadrupole Moments (Debye-Ang)
        XX     -70.0787     XY       7.0982     YY     -65.3336
        XZ      10.7762     YZ      -3.6721     ZZ     -60.5008

             Standard Nuclear Orientation (Angstroms)
    I     Atom           X                Y                Z
 ----------------------------------------------------------------
    1      C      -0.0946018658    -0.2862875634     0.6584936930
    2      C      -0.9326906499    -1.0061475377     1.7100632223
    3      C      -1.8049912755    -2.0592312116     1.0991852543
    4      C      -2.2677558347    -1.9023689136    -0.1532427075
    5      C      -1.9730784569    -0.6987579639    -0.8846737787
    6      C      -1.0618262935     0.2009376215    -0.3951239502
    7      C      -0.7389229415     1.4858086963    -1.0928020472
    8      H       0.4026426038     0.5606858408     1.1328384958
    9      H      -0.3165609268    -1.3998000679     2.5146230562
   10      H      -2.0650997134    -2.9247158149     1.6922010420
   11      H      -2.9196955240    -2.6409021586    -0.5990721757
   12      H      -2.5357727604    -0.4668139355    -1.7797943829
   13      H      -1.4514898466     1.6798452780    -1.8951024852
   14      O       0.6011408131     1.4552179675    -1.5928950157
   15      H      -0.7759790141     2.3107298853    -0.3838444184
   16      H       0.6397831435     0.8067889401    -2.3052263705
   17      O       0.8605859997    -1.1965739121     0.1325468757
   18      H       1.3882957713    -0.7189683985    -0.5180206375
   19      O      -1.6841331169     0.0743227755     2.3022829550
   20      O      -2.3935963961     0.6843215779     1.2697162947
 ----------------------------------------------------------------

 Frequency:      -512.35                  79.85                 114.59
 Force Cnst:      1.9801                 0.0159                 0.0396
 Red. Mass:      12.8029                 4.2285                 5.1130
 IR Intens:      869.158                  5.793                 17.047
 Frequency:       170.00                 207.96                 225.66
 Force Cnst:      0.1034                 0.1183                 0.1344
 Red. Mass:       6.0727                 4.6427                 4.4796
 IR Intens:       12.683                  9.015                 27.933
 Frequency:       275.79                 291.25                 320.95
 Force Cnst:      0.1798                 0.0774                 0.1299
 Red. Mass:       4.0116                 1.5481                 2.1395
 IR Intens:       14.215                132.347                174.176
 Frequency:       363.06                 389.31                 407.44
 Force Cnst:      0.1781                 0.1533                 0.2269
 Red. Mass:       2.2934                 1.7165                 2.3201
 IR Intens:       44.184                 65.728                 85.024
 Frequency:       478.44                 515.17                 576.32
 Force Cnst:      0.4109                 0.8661                 1.3576
 Red. Mass:       3.0467                 5.5387                 6.9376
 IR Intens:       21.723                  3.294                185.547
 Frequency:       601.55                 675.73                 749.63
 Force Cnst:      0.9580                 1.0860                 0.5762
 Red. Mass:       4.4935                 4.0367                 1.7402
 IR Intens:       41.664                  6.960                103.072
 Frequency:       824.25                 878.93                 893.35
 Force Cnst:      1.5401                 1.2292                 1.7083
 Red. Mass:       3.8474                 2.7007                 3.6331
 IR Intens:       17.470                273.128                259.733
 Frequency:       917.15                 948.98                 964.20
 Force Cnst:      0.9516                 1.2942                 1.4164
 Red. Mass:       1.9200                 2.4392                 2.5858
 IR Intens:       13.196                 81.513                 38.887
 Frequency:       995.12                1020.23                1033.43
 Force Cnst:      2.1103                 1.0379                 1.7478
 Red. Mass:       3.6170                 1.6924                 2.7777
 IR Intens:        5.152                 38.415                 92.640
 Frequency:      1052.84                1099.38                1122.41
 Force Cnst:      1.5340                 1.2089                 4.3900
 Red. Mass:       2.3489                 1.6976                 5.9145
 IR Intens:       86.104                 14.172                237.598
 Frequency:      1161.38                1190.28                1211.06
 Force Cnst:      0.8960                 0.9434                 1.2579
 Red. Mass:       1.1275                 1.1302                 1.4557
 IR Intens:       28.589                 24.394                 46.769
 Frequency:      1222.44                1295.93                1328.39
 Force Cnst:      1.3116                 1.4034                 1.4437
 Red. Mass:       1.4896                 1.4183                 1.3886
 IR Intens:       98.434                  7.531                 14.190
 Frequency:      1346.40                1367.95                1393.26
 Force Cnst:      1.6706                 1.4434                 1.4719
 Red. Mass:       1.5641                 1.3092                 1.2870
 IR Intens:       13.433                 15.010                158.957
 Frequency:      1405.81                1409.52                1434.33
 Force Cnst:      1.9763                 1.7864                 2.2143
 Red. Mass:       1.6972                 1.5261                 1.8268
 IR Intens:       20.006                 15.408                 36.379
 Frequency:      1477.14                1537.24                1650.36
 Force Cnst:      1.3959                 7.1623                 8.4491
 Red. Mass:       1.0859                 5.1442                 5.2650
 IR Intens:       17.436                243.017                 26.747
 Frequency:      3072.80                3083.02                3130.57
 Force Cnst:      5.9003                 6.0790                 6.3847
 Red. Mass:       1.0606                 1.0855                 1.1057
 IR Intens:       45.394                 33.544                 17.217
 Frequency:      3139.21                3194.56                3204.22
 Force Cnst:      6.3137                 6.5463                 6.5906
 Red. Mass:       1.0874                 1.0887                 1.0895
 IR Intens:       14.869                  9.580                 13.517
 Frequency:      3219.54                3815.30                3818.93
 Force Cnst:      6.7105                 9.1481                 9.1651
 Red. Mass:       1.0988                 1.0666                 1.0666
 IR Intens:       12.121                231.612                 81.584

 STANDARD THERMODYNAMIC QUANTITIES AT   298.15 K  AND     1.00 ATM

   This Molecule has  1 Imaginary Frequencies
   Zero point vibrational energy:       97.643 kcal/mol

   Atom    1 Element C  Has Mass   12.00000
   Atom    2 Element C  Has Mass   12.00000
   Atom    3 Element C  Has Mass   12.00000
   Atom    4 Element C  Has Mass   12.00000
   Atom    5 Element C  Has Mass   12.00000
   Atom    6 Element C  Has Mass   12.00000
   Atom    7 Element C  Has Mass   12.00000
   Atom    8 Element H  Has Mass    1.00783
   Atom    9 Element H  Has Mass    1.00783
   Atom   10 Element H  Has Mass    1.00783
   Atom   11 Element H  Has Mass    1.00783
   Atom   12 Element H  Has Mass    1.00783
   Atom   13 Element H  Has Mass    1.00783
   Atom   14 Element O  Has Mass   15.99491
   Atom   15 Element H  Has Mass    1.00783
   Atom   16 Element H  Has Mass    1.00783
   Atom   17 Element O  Has Mass   15.99491
   Atom   18 Element H  Has Mass    1.00783
   Atom   19 Element O  Has Mass   15.99491
   Atom   20 Element O  Has Mass   15.99491
   Molecular Mass:   157.050110 amu
   Principal axes and moments of inertia in amu*Bohr^2:
                             1           2           3
    Eigenvalues --     1063.04853  1810.69517  1907.95114
          X              -0.49388    -0.59272     0.63622
          Y              -0.54910     0.77992     0.30034
          Z               0.67422     0.20101     0.71065
   Rotational Symmetry Number is   1
   The Molecule is an Asymmetric Top
   Translational Enthalpy:        0.889 kcal/mol
   Rotational Enthalpy:           0.889 kcal/mol
   Vibrational Enthalpy:        102.075 kcal/mol
   gas constant (RT):             0.592 kcal/mol
   Translational Entropy:        41.063  cal/mol.K
   Rotational Entropy:           29.686  cal/mol.K
   Vibrational Entropy:          25.393  cal/mol.K

   Total Enthalpy:              104.445 kcal/mol
   Total Entropy:                96.143  cal/mol.K
 Total job time:  74203.36s(wall), 575816.66s(cpu)
        *  Thank you very much for using Q-Chem.  Have a nice day.  *
