 Q-Chem 5.4, Q-Chem, Inc., Pleasanton, CA (2021)
 Q-Chem 5.4.1 for Intel X86 EM64T Linux

User input:
--------------------------------------------------------------
$molecule
0 2
C        -0.2253534428   -0.1397844562    0.6729784886
C        -0.8962185549   -1.1056838838    1.6481956904
C        -1.9111381252   -2.0273790149    1.0609817773
C        -2.4186674228   -1.8017075940   -0.1485992126
C        -2.0172186874   -0.6438624830   -0.9492583522
C        -1.0222774662    0.1571977686   -0.5706338622
C        -0.6030504200    1.3613803407   -1.3549606604
H        -0.0375569227    0.7947365936    1.2107018004
H        -0.1138878584   -1.6575745243    2.1662229861
H        -2.2186896339   -2.8742727498    1.6588159940
H        -3.1557219310   -2.4767189707   -0.5626930686
H        -2.5567947821   -0.4429850858   -1.8664805983
H        -1.2317475232    1.4810840489   -2.2375104374
O         0.7833353835    1.2935123556   -1.7280546825
H        -0.6944428048    2.2569694126   -0.7398515534
H         0.8689011078    0.6271613359   -2.4195808729
O         1.0263646134   -0.7451276272    0.3216924494
H         1.4125072101   -0.1873596416   -0.3684671293
O        -1.5016542552   -0.3419563325    2.7540906430
O        -2.5056968840    0.3847931077    2.3523852005
****
C        -0.0600066222   -0.3135205577    0.7955608055
C        -0.9784822494   -1.0537090034    1.7582108051
C        -1.7173499139   -2.1575665840    1.0712008585
C        -2.1565599186   -1.9374071279   -0.2206154243
C        -1.8926611525   -0.7332631784   -0.8448707863
C        -1.1583472874    0.3191545082   -0.0691578154
C        -0.6574678257    1.4818044130   -0.9091164815
H         0.4781628576    0.4745166757    1.3260267429
H        -0.4970126816   -1.3571814269    2.6836387448
H        -1.9169013808   -3.0795800365    1.5959972619
H        -2.7100131592   -2.7068360177   -0.7429988464
H        -2.2294102727   -0.5183762414   -1.8501743493
H        -1.4745251722    1.9310078550   -1.4750878685
O         0.3793760951    1.0326470500   -1.7780388714
H        -0.2230516320    2.2335649805   -0.2537698973
H        -0.0204667307    0.5583792750   -2.5157755311
O         0.8221532288   -1.1724563506    0.1134175498
H         1.1670151671   -0.6721216768   -0.6388700494
O        -1.8866771859    0.0079235374    2.1290650003
O        -2.0280605637    0.8637318063    0.9469641518
$end

$rem
BASIS = 6-311++G(2df,2p)
GUI = 2
JOB_TYPE = FSM
FSM_MODE = 2
METHOD = wB97M-v
MAX_SCF_CYCLES = 120
FSM_NGRAD = 6
FSM_NNODE = 20
SCF_CONVERGENCE = 7
THRESH = 12
SCF_ALGORITHM = DIIS_GDM
solvent_method = SMD
$end

--------------------------------------------------------------

   24    -572.8990535694      5.79e-08  Convergence criterion met
 Total energy in the final basis set =     -572.8942848243
   18    -572.9119564518      5.57e-08  Convergence criterion met
 Total energy in the final basis set =     -572.9071868657
   24    -572.8987702388      7.50e-08  Convergence criterion met
 Total energy in the final basis set =     -572.8939911515
   22    -572.8933132497      6.20e-08  Convergence criterion met
 Total energy in the final basis set =     -572.8885184363
   25    -572.8947318154      6.17e-08  Convergence criterion met
 Total energy in the final basis set =     -572.8899410639
   25    -572.8965713163      4.55e-08  Convergence criterion met
 Total energy in the final basis set =     -572.8917914867
   19    -572.9087924764      5.80e-08  Convergence criterion met
 Total energy in the final basis set =     -572.9040269150
   18    -572.9107674180      5.46e-08  Convergence criterion met
 Total job time:  34339.80s(wall), 265690.22s(cpu)
        *  Thank you very much for using Q-Chem.  Have a nice day.  *
 Q-Chem 5.4, Q-Chem, Inc., Pleasanton, CA (2021)
 Q-Chem 5.4.1 for Intel X86 EM64T Linux

User input:
--------------------------------------------------------------

$rem
JOBTYPE = ts
SCF_GUESS = read
GEOM_OPT_HESSIAN = read
MAX_SCF_CYCLES = 350
GEOM_OPT_DMAX = 60
GEOM_OPT_MAX_CYCLES = 250
METHOD = wB97M-v
BASIS = 6-311++G(2df,2p)
SCF_CONVERGENCE = 7
THRESH = 12
SCF_ALGORITHM = DIIS_GDM
solvent_method = SMD
$end

$molecule
read
$end
--------------------------------------------------------------

   24    -572.8703447101      7.22e-08  Convergence criterion met
 Total energy in the final basis set =     -572.8654346647
   24    -572.8703465395      6.35e-08  Convergence criterion met
 Total energy in the final basis set =     -572.8654392627
   24    -572.8703504326      6.23e-08  Convergence criterion met
 Total energy in the final basis set =     -572.8654423506
   24    -572.8703503018      6.42e-08  Convergence criterion met
 Total energy in the final basis set =     -572.8654440917
   24    -572.8703498184      5.64e-08  Convergence criterion met
 Total energy in the final basis set =     -572.8654345307
   24    -572.8703521383      6.41e-08  Convergence criterion met
 Total energy in the final basis set =     -572.8654445905

             Standard Nuclear Orientation (Angstroms)
    I     Atom           X                Y                Z
 ----------------------------------------------------------------
    1      C      -0.0946018658    -0.2862875634     0.6584936930
    2      C      -0.9326906499    -1.0061475377     1.7100632223
    3      C      -1.8049912755    -2.0592312116     1.0991852543
    4      C      -2.2677558347    -1.9023689136    -0.1532427075
    5      C      -1.9730784569    -0.6987579639    -0.8846737787
    6      C      -1.0618262935     0.2009376215    -0.3951239502
    7      C      -0.7389229415     1.4858086963    -1.0928020472
    8      H       0.4026426038     0.5606858408     1.1328384958
    9      H      -0.3165609268    -1.3998000679     2.5146230562
   10      H      -2.0650997134    -2.9247158149     1.6922010420
   11      H      -2.9196955240    -2.6409021586    -0.5990721757
   12      H      -2.5357727604    -0.4668139355    -1.7797943829
   13      H      -1.4514898466     1.6798452780    -1.8951024852
   14      O       0.6011408131     1.4552179675    -1.5928950157
   15      H      -0.7759790141     2.3107298853    -0.3838444184
   16      H       0.6397831435     0.8067889401    -2.3052263705
   17      O       0.8605859997    -1.1965739121     0.1325468757
   18      H       1.3882957713    -0.7189683985    -0.5180206375
   19      O      -1.6841331169     0.0743227755     2.3022829550
   20      O      -2.3935963961     0.6843215779     1.2697162947
 ----------------------------------------------------------------

   24    -572.8703521320      6.02e-08  Convergence criterion met
 Total energy in the final basis set =     -572.8654446864
 Final energy is   -572.865444686409
 **  OPTIMIZATION CONVERGED  **

                    Orbital Energies (a.u.)
 --------------------------------------------------------------

 Alpha MOs
 -- Occupied --
-19.4053 -19.3851 -19.3472 -19.3443 -10.4085 -10.4066 -10.3929 -10.3858
-10.3711 -10.3612 -10.3583  -1.2667  -1.1715  -1.1587  -1.0053  -0.9833
 -0.8995  -0.8603  -0.8081  -0.7491  -0.7155  -0.6669  -0.6507  -0.6229
 -0.5997  -0.5873  -0.5808  -0.5693  -0.5552  -0.5458  -0.5244  -0.5093
 -0.5008  -0.4691  -0.4520  -0.4501  -0.4377  -0.4100  -0.4042  -0.3903
 -0.3531  -0.3146

 Beta MOs
 -- Occupied --
-19.4029 -19.3701 -19.3474 -19.3444 -10.4085 -10.4061 -10.3929 -10.3862
-10.3660 -10.3599 -10.3578  -1.2528  -1.1714  -1.1588  -0.9894  -0.9734
 -0.8967  -0.8526  -0.8050  -0.7458  -0.7122  -0.6604  -0.6486  -0.6201
 -0.5951  -0.5821  -0.5734  -0.5631  -0.5537  -0.5446  -0.5178  -0.5031
 -0.4883  -0.4617  -0.4480  -0.4378  -0.4255  -0.4011  -0.3897  -0.3624
 -0.3282

          Ground-State Mulliken Net Atomic Charges

     Atom                 Charge (a.u.)    Spin (a.u.)
  --------------------------------------------------------
      1 C                    -0.158491       0.039813
      2 C                    -0.326954      -0.005738
      3 C                    -0.149818       0.210947
      4 C                    -0.368204      -0.069700
      5 C                    -0.671852       0.372167
      6 C                     0.584799      -0.099394
      7 C                    -0.411109      -0.010520
      8 H                     0.328983      -0.000408
      9 H                     0.267453       0.002343
     10 H                     0.322937      -0.005893
     11 H                     0.296997       0.003371
     12 H                     0.302846      -0.006454
     13 H                     0.233746       0.000421
     14 O                    -0.392282      -0.003381
     15 H                     0.225118      -0.000959
     16 H                     0.325333      -0.000561
     17 O                    -0.400180      -0.000989
     18 H                     0.341989       0.001315
     19 O                    -0.087264       0.075598
     20 O                    -0.264046       0.498023
  --------------------------------------------------------
  Sum of atomic charges =     0.000000

                    Cartesian Multipole Moments
 -----------------------------------------------------------------
    Charge (ESU x 10^10)
                 0.0000
    Dipole Moment (Debye)
         X       0.8455      Y      -2.7038      Z      -4.8341
       Tot       5.6031
    Quadrupole Moments (Debye-Ang)
        XX     -70.0649     XY       7.0891     YY     -65.3409
        XZ      10.7562     YZ      -3.6674     ZZ     -60.4927

 Total job time:  10982.98s(wall), 85592.76s(cpu)
        *  Thank you very much for using Q-Chem.  Have a nice day.  *
