 Q-Chem 5.4, Q-Chem, Inc., Pleasanton, CA (2021)
 Q-Chem 5.4.1 for Intel X86 EM64T Linux

User input:
--------------------------------------------------------------
$molecule
0 2
C        -0.0568356492   -0.1801173299    0.7839561656
C        -0.9336704908   -0.9288542812    1.7786576951
C        -1.6592052976   -2.0810597334    1.1557228011
C        -2.1053357374   -1.9179068089   -0.1807021767
C        -1.8627520303   -0.7573216707   -0.8328734045
C        -1.1860001578    0.3675646524   -0.0926538726
C        -0.7506077486    1.5244436730   -0.9765877714
H         0.4366724422    0.6503542526    1.2931750506
H        -0.4356447956   -1.1836102491    2.7105129536
H        -2.1272375654   -2.8030467055    1.8063544442
H        -2.6582729886   -2.7158575081   -0.6579934610
H        -2.1993408579   -0.5902815838   -1.8483187585
H        -1.5928206027    1.9105668195   -1.5516844845
O         0.3031476718    1.0981623067   -1.8359580131
H        -0.3532527975    2.3189143809   -0.3487471884
H        -0.0771529609    0.6097360498   -2.5745451856
O         0.8697055113   -0.9990204351    0.1147548499
H         1.1839282639   -0.4887909012   -0.6449141874
O        -1.8920052880    0.0955374897    2.1149862072
O        -2.0818973491    0.8980881610    0.9022111722
O        -0.0324700635   -3.5309342104    1.0688758163
O         0.3020323573   -3.8931640246    2.1882178170
$end

$rem
BASIS = 6-311++G(2df,2p)
GUI = 2
JOB_TYPE = Frequency
METHOD = wB97M-V
SOLVENT_METHOD = SMD
SCF_ALGORITHM = DIIS_GDM
MAX_SCF_CYCLES = 400
SCF_CONVERGENCE = 7
THRESH = 12
UNRESTRICTED = 1
SYMMETRY_IGNORE = 1
$end
--------------------------------------------------------------

   29    -723.2409582673      3.16e-08  Convergence criterion met
 Total energy in the final basis set =     -723.2366694365
   21    -723.2409603918      7.47e-08  Convergence criterion met
 Total energy in the final basis set =     -723.2366684295
   21    -723.2409541817      7.44e-08  Convergence criterion met
 Total energy in the final basis set =     -723.2366683300
   21    -723.2409547915      7.44e-08  Convergence criterion met
 Total energy in the final basis set =     -723.2366683500
   21    -723.2409597387      7.47e-08  Convergence criterion met
 Total energy in the final basis set =     -723.2366684006
   21    -723.2409554563      7.45e-08  Convergence criterion met
 Total energy in the final basis set =     -723.2366684402
   21    -723.2409592679      7.44e-08  Convergence criterion met
 Total energy in the final basis set =     -723.2366685433
   21    -723.2409574949      7.49e-08  Convergence criterion met
 Total energy in the final basis set =     -723.2366683041
   21    -723.2409575686      7.40e-08  Convergence criterion met
 Total energy in the final basis set =     -723.2366688551
   21    -723.2409581934      7.56e-08  Convergence criterion met
 Total energy in the final basis set =     -723.2366693311
   21    -723.2409581401      7.40e-08  Convergence criterion met
 Total energy in the final basis set =     -723.2366693410
   21    -723.2409581189      7.31e-08  Convergence criterion met
 Total energy in the final basis set =     -723.2366693424
   21    -723.2409581939      7.34e-08  Convergence criterion met
 Total energy in the final basis set =     -723.2366693091
   21    -723.2409576195      7.58e-08  Convergence criterion met
 Total energy in the final basis set =     -723.2366688199
   21    -723.2409572454      7.41e-08  Convergence criterion met
 Total energy in the final basis set =     -723.2366683836

                    Orbital Energies (a.u.)
 --------------------------------------------------------------

 Alpha MOs
 -- Occupied --
-19.4753 -19.4468 -19.4072 -19.4053 -19.3490 -19.3454 -10.4163 -10.4125
-10.4075 -10.3951 -10.3718 -10.3572 -10.3561  -1.3965  -1.2732  -1.1755
 -1.1624  -1.0712  -0.9772  -0.9431  -0.8911  -0.8525  -0.8080  -0.7518
 -0.7125  -0.6861  -0.6652  -0.6476  -0.6444  -0.6378  -0.6252  -0.6090
 -0.5875  -0.5774  -0.5644  -0.5514  -0.5323  -0.5240  -0.5181  -0.4952
 -0.4839  -0.4619  -0.4506  -0.4342  -0.4105  -0.3995  -0.3922  -0.3876
 -0.3715  -0.3618

 Beta MOs
 -- Occupied --
-19.4479 -19.4220 -19.4086 -19.4061 -19.3491 -19.3453 -10.4160 -10.4120
-10.4078 -10.3951 -10.3796 -10.3614 -10.3544  -1.3474  -1.2753  -1.1756
 -1.1625  -1.0737  -0.9813  -0.8954  -0.8750  -0.8547  -0.8125  -0.7535
 -0.7157  -0.6862  -0.6626  -0.6376  -0.6114  -0.6053  -0.5934  -0.5790
 -0.5718  -0.5643  -0.5510  -0.5471  -0.5312  -0.5246  -0.5187  -0.4963
 -0.4871  -0.4635  -0.4530  -0.4359  -0.4155  -0.3972  -0.3917  -0.3697
 -0.2814

          Ground-State Mulliken Net Atomic Charges

     Atom                 Charge (a.u.)    Spin (a.u.)
  --------------------------------------------------------
      1 C                    -0.204257      -0.015185
      2 C                    -0.125338      -0.004869
      3 C                    -0.346526      -0.491991
      4 C                    -0.390758       0.133415
      5 C                    -0.279341      -0.359036
      6 C                     0.062992       0.045889
      7 C                    -0.412578      -0.005028
      8 H                     0.326910       0.001050
      9 H                     0.288120      -0.006511
     10 H                     0.377842       0.021669
     11 H                     0.301127      -0.007038
     12 H                     0.326236       0.008668
     13 H                     0.251813       0.000104
     14 O                    -0.383019      -0.001823
     15 H                     0.239860       0.000210
     16 H                     0.330088       0.000135
     17 O                    -0.409353       0.001035
     18 H                     0.339943      -0.001156
     19 O                    -0.122899      -0.030814
     20 O                    -0.117145      -0.017233
     21 O                     0.033885       0.890095
     22 O                    -0.087599       0.838414
  --------------------------------------------------------
  Sum of atomic charges =     0.000000

                    Cartesian Multipole Moments
 -----------------------------------------------------------------
    Charge (ESU x 10^10)
                 0.0000
    Dipole Moment (Debye)
         X      -1.2911      Y       1.1324      Z      -4.3337
       Tot       4.6616
    Quadrupole Moments (Debye-Ang)
        XX     -80.1766     XY       9.2825     YY     -82.8255
        XZ       8.6473     YZ       1.3618     ZZ     -70.3709

             Standard Nuclear Orientation (Angstroms)
    I     Atom           X                Y                Z
 ----------------------------------------------------------------
    1      C      -0.0568356492    -0.1801173299     0.7839561656
    2      C      -0.9336704908    -0.9288542812     1.7786576951
    3      C      -1.6592052976    -2.0810597334     1.1557228011
    4      C      -2.1053357374    -1.9179068089    -0.1807021767
    5      C      -1.8627520303    -0.7573216707    -0.8328734045
    6      C      -1.1860001578     0.3675646524    -0.0926538726
    7      C      -0.7506077486     1.5244436730    -0.9765877714
    8      H       0.4366724422     0.6503542526     1.2931750506
    9      H      -0.4356447956    -1.1836102491     2.7105129536
   10      H      -2.1272375654    -2.8030467055     1.8063544442
   11      H      -2.6582729886    -2.7158575081    -0.6579934610
   12      H      -2.1993408579    -0.5902815838    -1.8483187585
   13      H      -1.5928206027     1.9105668195    -1.5516844845
   14      O       0.3031476718     1.0981623067    -1.8359580131
   15      H      -0.3532527975     2.3189143809    -0.3487471884
   16      H      -0.0771529609     0.6097360498    -2.5745451856
   17      O       0.8697055113    -0.9990204351     0.1147548499
   18      H       1.1839282639    -0.4887909012    -0.6449141874
   19      O      -1.8920052880     0.0955374897     2.1149862072
   20      O      -2.0818973491     0.8980881610     0.9022111722
   21      O      -0.0324700635    -3.5309342104     1.0688758163
   22      O       0.3020323573    -3.8931640246     2.1882178170
 ----------------------------------------------------------------

 Frequency:      -497.84                  17.47                  65.25
 Force Cnst:      1.5304                 0.0022                 0.0207
 Red. Mass:      10.4803                12.3394                 8.2698
 IR Intens:     2729.407                  0.661                  1.563
 Frequency:       101.73                 109.68                 157.47
 Force Cnst:      0.0291                 0.0456                 0.1120
 Red. Mass:       4.7806                 6.4304                 7.6676
 IR Intens:        5.065                  3.284                  9.947
 Frequency:       178.89                 205.98                 250.91
 Force Cnst:      0.1387                 0.0987                 0.0916
 Red. Mass:       7.3559                 3.9497                 2.4708
 IR Intens:       19.098                 46.700                 82.494
 Frequency:       281.21                 300.13                 304.30
 Force Cnst:      0.2263                 0.0934                 0.1429
 Red. Mass:       4.8575                 1.7593                 2.6198
 IR Intens:        9.925                 79.765                167.604
 Frequency:       351.22                 386.18                 402.16
 Force Cnst:      0.2673                 0.4658                 0.1178
 Red. Mass:       3.6783                 5.3007                 1.2359
 IR Intens:       27.780                 12.322                202.675
 Frequency:       452.55                 520.98                 534.10
 Force Cnst:      0.4332                 0.7830                 0.9615
 Red. Mass:       3.5899                 4.8961                 5.7210
 IR Intens:       65.558                 57.030                  7.604
 Frequency:       632.68                 634.35                 693.49
 Force Cnst:      0.9462                 1.4042                 0.9423
 Red. Mass:       4.0122                 5.9228                 3.3256
 IR Intens:       24.219                 10.066                 49.572
 Frequency:       752.13                 774.86                 812.47
 Force Cnst:      0.6487                 1.0555                 0.6818
 Red. Mass:       1.9462                 2.9838                 1.7530
 IR Intens:       60.339                 74.200                479.555
 Frequency:       877.01                 898.54                 937.56
 Force Cnst:      2.7478                 1.2734                 0.9294
 Red. Mass:       6.0635                 2.6769                 1.7944
 IR Intens:      113.176                 12.543                  7.892
 Frequency:       955.12                 978.70                 992.03
 Force Cnst:      2.3452                 2.8637                 0.8117
 Red. Mass:       4.3632                 5.0743                 1.3998
 IR Intens:        9.076                230.130                 19.818
 Frequency:      1031.24                1047.42                1070.56
 Force Cnst:      1.4534                 2.2253                 3.4944
 Red. Mass:       2.3195                 3.4426                 5.1748
 IR Intens:       49.999                101.279                 72.746
 Frequency:      1110.70                1121.67                1162.16
 Force Cnst:      0.8909                 1.1879                 0.9419
 Red. Mass:       1.2257                 1.6025                 1.1836
 IR Intens:        7.785                  6.707                 70.943
 Frequency:      1193.29                1247.43                1264.10
 Force Cnst:      1.2731                 1.8248                 1.7004
 Red. Mass:       1.5175                 1.9903                 1.8061
 IR Intens:       51.866                 42.474                 84.134
 Frequency:      1276.33                1308.32                1316.42
 Force Cnst:      1.8979                 1.6412                 2.5578
 Red. Mass:       1.9774                 1.6273                 2.5051
 IR Intens:      451.259                 97.809               2637.448
 Frequency:      1354.24                1361.82                1385.18
 Force Cnst:      2.0634                 2.1063                 1.4397
 Red. Mass:       1.9096                 1.9277                 1.2736
 IR Intens:      138.300                214.573                 79.393
 Frequency:      1398.58                1404.45                1444.74
 Force Cnst:      2.2881                 1.5446                 2.7117
 Red. Mass:       1.9854                 1.3291                 2.2050
 IR Intens:       84.975                 84.200                351.515
 Frequency:      1464.71                1485.69                1573.27
 Force Cnst:      2.7947                 1.4144                 6.9832
 Red. Mass:       2.2110                 1.0876                 4.7884
 IR Intens:      116.288                  3.126                  8.473
 Frequency:      3070.15                3073.58                3138.96
 Force Cnst:      6.0267                 5.9082                 6.4225
 Red. Mass:       1.0852                 1.0615                 1.1063
 IR Intens:       43.072                 70.501                 25.209
 Frequency:      3144.21                3188.74                3205.57
 Force Cnst:      6.3389                 6.5141                 6.6364
 Red. Mass:       1.0883                 1.0873                 1.0962
 IR Intens:        4.172                  5.846                 12.237
 Frequency:      3232.17                3750.70                3823.82
 Force Cnst:      6.7240                 8.8377                 9.1900
 Red. Mass:       1.0924                 1.0663                 1.0668
 IR Intens:        3.805                281.222                131.923

 STANDARD THERMODYNAMIC QUANTITIES AT   298.15 K  AND     1.00 ATM

   This Molecule has  1 Imaginary Frequencies
   Zero point vibrational energy:      101.799 kcal/mol

   Atom    1 Element C  Has Mass   12.00000
   Atom    2 Element C  Has Mass   12.00000
   Atom    3 Element C  Has Mass   12.00000
   Atom    4 Element C  Has Mass   12.00000
   Atom    5 Element C  Has Mass   12.00000
   Atom    6 Element C  Has Mass   12.00000
   Atom    7 Element C  Has Mass   12.00000
   Atom    8 Element H  Has Mass    1.00783
   Atom    9 Element H  Has Mass    1.00783
   Atom   10 Element H  Has Mass    1.00783
   Atom   11 Element H  Has Mass    1.00783
   Atom   12 Element H  Has Mass    1.00783
   Atom   13 Element H  Has Mass    1.00783
   Atom   14 Element O  Has Mass   15.99491
   Atom   15 Element H  Has Mass    1.00783
   Atom   16 Element H  Has Mass    1.00783
   Atom   17 Element O  Has Mass   15.99491
   Atom   18 Element H  Has Mass    1.00783
   Atom   19 Element O  Has Mass   15.99491
   Atom   20 Element O  Has Mass   15.99491
   Atom   21 Element O  Has Mass   15.99491
   Atom   22 Element O  Has Mass   15.99491
   Molecular Mass:   189.039930 amu
   Principal axes and moments of inertia in amu*Bohr^2:
                             1           2           3
    Eigenvalues --     1344.44972  2839.54406  3252.96635
          X              -0.10460     0.76532     0.63510
          Y               0.86783    -0.24165     0.43414
          Z              -0.48573    -0.59657     0.63889
   Rotational Symmetry Number is   1
   The Molecule is an Asymmetric Top
   Translational Enthalpy:        0.889 kcal/mol
   Rotational Enthalpy:           0.889 kcal/mol
   Vibrational Enthalpy:        107.817 kcal/mol
   gas constant (RT):             0.592 kcal/mol
   Translational Entropy:        41.616  cal/mol.K
   Rotational Entropy:           30.896  cal/mol.K
   Vibrational Entropy:          39.290  cal/mol.K

   Total Enthalpy:              110.187 kcal/mol
   Total Entropy:               111.803  cal/mol.K
 Total job time:  95876.34s(wall), 740751.89s(cpu)
        *  Thank you very much for using Q-Chem.  Have a nice day.  *
