 Q-Chem 5.4, Q-Chem, Inc., Pleasanton, CA (2021)
 Q-Chem 5.4.1 for Intel X86 EM64T Linux

User input:
--------------------------------------------------------------
$molecule
0 2
C   -0.1607428   -0.3047236    0.7398258
C   -1.1226033   -0.9968050    1.6966966
C   -1.9332405   -2.0418842    0.9980318
C   -2.3570681   -1.7793265   -0.2906973
C   -2.0165720   -0.5871983   -0.9019243
C   -1.2196544    0.4079355   -0.1126192
C   -0.6503839    1.5510569   -0.9354047
H    0.4286932    0.4399940    1.2784620
H   -0.6613334   -1.3418223    2.6176084
H   -2.1919819   -2.9555339    1.5118383
H   -2.9581663   -2.5061068   -0.8215107
H   -2.3380641   -0.3402128   -1.9047923
H   -1.4397402    2.0582357   -1.4915283
O    0.3557680    1.0548523   -1.8148316
H   -0.1700704    2.2643356   -0.2691283
H   -0.0735153    0.6194986   -2.5599322
O    0.6610670   -1.2067333    0.0392669
H    1.0242825   -0.7211348   -0.7139303
O   -1.9584316    0.1165951    2.0847047
O   -2.0551562    0.9899454    0.9111271
O    0.7060657   -3.9929129    1.7597505
O    1.2300056   -3.2526000    2.5407059
****
C   -0.0018404   -0.2111117    0.7850936
C   -0.8543848   -0.9918940    1.7683029
C   -1.5196684   -2.2109419    1.1227945
C   -2.0055640   -1.9339193   -0.2641669
C   -1.8515154   -0.7350846   -0.8087086
C   -1.1496037    0.3646172   -0.0495379
C   -0.7251521    1.5393708   -0.9154633
H    0.5037787    0.6071459    1.3020087
H   -0.3494812   -1.2575758    2.6940203
H   -2.3275249   -2.5552363    1.7667101
H   -2.5227453   -2.7333166   -0.7779471
H   -2.2461336   -0.5083250   -1.7919990
H   -1.5761696    1.9429402   -1.4647114
O    0.3079242    1.1226202   -1.8034603
H   -0.3097393    2.3170653   -0.2783354
H   -0.0908970    0.6657619   -2.5524873
O    0.9076946   -1.0285597    0.0903002
H    1.2026555   -0.5187484   -0.6774832
O   -1.8818547   -0.0585635    2.1034149
O   -1.9996977    0.8785908    0.9829491
O   -0.5706882   -3.3225895    1.0426109
O   -0.3880469   -3.8825907    2.2045711
$end

$rem
BASIS = 6-311++G(2df,2p)
GUI = 2
JOB_TYPE = FSM
FSM_MODE = 2
METHOD = wB97M-v
MAX_SCF_CYCLES = 120
FSM_NGRAD = 6
FSM_NNODE = 20
SCF_CONVERGENCE = 7
THRESH = 12
SCF_ALGORITHM = DIIS_GDM
UNRESTRICTED = 1
solvent_method = SMD
$end

--------------------------------------------------------------

   30    -723.2504700173      7.23e-08  Convergence criterion met
 Total energy in the final basis set =     -723.2459547303
   22    -723.2873942510      8.57e-08  Convergence criterion met
 Total energy in the final basis set =     -723.2832130231
   30    -723.2504097081      5.64e-08  Convergence criterion met
 Total energy in the final basis set =     -723.2459123068
   24    -723.2414952278      6.36e-08  Convergence criterion met
 Total energy in the final basis set =     -723.2370056757
   35    -723.2454250737      5.63e-08  Convergence criterion met
 Total energy in the final basis set =     -723.2409331571
   23    -723.2843108019      4.82e-08  Convergence criterion met
 Total energy in the final basis set =     -723.2801224198
   22    -723.2858190933      6.66e-08  Convergence criterion met
 Total energy in the final basis set =     -723.2816146625
   35    -723.2448138479      7.13e-08  Convergence criterion met
 Total job time:  33359.63s(wall), 471207.17s(cpu)
        *  Thank you very much for using Q-Chem.  Have a nice day.  *
 Q-Chem 5.4, Q-Chem, Inc., Pleasanton, CA (2021)
 Q-Chem 5.4.1 for Intel X86 EM64T Linux

User input:
--------------------------------------------------------------

$rem
JOBTYPE = ts
SCF_GUESS = read
GEOM_OPT_HESSIAN = read
MAX_SCF_CYCLES = 350
GEOM_OPT_DMAX = 60
GEOM_OPT_MAX_CYCLES = 250
METHOD = wB97M-v
BASIS = 6-311++G(2df,2p)
SCF_CONVERGENCE = 7
THRESH = 12
SCF_ALGORITHM = DIIS_GDM
UNRESTRICTED = 1
solvent_method = SMD
$end

$molecule
read
$end

--------------------------------------------------------------

   21    -723.2409371096      9.56e-08  Convergence criterion met
 Total energy in the final basis set =     -723.2366562462
   21    -723.2409414419      8.79e-08  Convergence criterion met
 Total energy in the final basis set =     -723.2366590485
   21    -723.2409466560      8.97e-08  Convergence criterion met
 Total energy in the final basis set =     -723.2366626760
   21    -723.2409513316      8.92e-08  Convergence criterion met
 Total energy in the final basis set =     -723.2366656436
   21    -723.2409549044      8.92e-08  Convergence criterion met
 Total energy in the final basis set =     -723.2366678603
   21    -723.2409579572      8.93e-08  Convergence criterion met
 Total energy in the final basis set =     -723.2366691230

             Standard Nuclear Orientation (Angstroms)
    I     Atom           X                Y                Z
 ----------------------------------------------------------------
    1      C      -0.0568356492    -0.1801173299     0.7839561656
    2      C      -0.9336704908    -0.9288542812     1.7786576951
    3      C      -1.6592052976    -2.0810597334     1.1557228011
    4      C      -2.1053357374    -1.9179068089    -0.1807021767
    5      C      -1.8627520303    -0.7573216707    -0.8328734045
    6      C      -1.1860001578     0.3675646524    -0.0926538726
    7      C      -0.7506077486     1.5244436730    -0.9765877714
    8      H       0.4366724422     0.6503542526     1.2931750506
    9      H      -0.4356447956    -1.1836102491     2.7105129536
   10      H      -2.1272375654    -2.8030467055     1.8063544442
   11      H      -2.6582729886    -2.7158575081    -0.6579934610
   12      H      -2.1993408579    -0.5902815838    -1.8483187585
   13      H      -1.5928206027     1.9105668195    -1.5516844845
   14      O       0.3031476718     1.0981623067    -1.8359580131
   15      H      -0.3532527975     2.3189143809    -0.3487471884
   16      H      -0.0771529609     0.6097360498    -2.5745451856
   17      O       0.8697055113    -0.9990204351     0.1147548499
   18      H       1.1839282639    -0.4887909012    -0.6449141874
   19      O      -1.8920052880     0.0955374897     2.1149862072
   20      O      -2.0818973491     0.8980881610     0.9022111722
   21      O      -0.0324700635    -3.5309342104     1.0688758163
   22      O       0.3020323573    -3.8931640246     2.1882178170
 ----------------------------------------------------------------

   21    -723.2409582673      6.86e-08  Convergence criterion met
 Total energy in the final basis set =     -723.2366694366
 Final energy is   -723.236669436606
 **  OPTIMIZATION CONVERGED  **

                    Orbital Energies (a.u.)
 --------------------------------------------------------------

 Alpha MOs
 -- Occupied --
-19.4751 -19.4466 -19.4072 -19.4054 -19.3490 -19.3454 -10.4164 -10.4125
-10.4075 -10.3951 -10.3720 -10.3573 -10.3562  -1.3956  -1.2733  -1.1755
 -1.1624  -1.0713  -0.9773  -0.9431  -0.8912  -0.8526  -0.8080  -0.7519
 -0.7126  -0.6861  -0.6651  -0.6472  -0.6441  -0.6375  -0.6250  -0.6090
 -0.5875  -0.5775  -0.5645  -0.5514  -0.5323  -0.5240  -0.5182  -0.4952
 -0.4840  -0.4620  -0.4507  -0.4342  -0.4105  -0.3996  -0.3922  -0.3877
 -0.3715  -0.3618

 Beta MOs
 -- Occupied --
-19.4478 -19.4218 -19.4087 -19.4062 -19.3491 -19.3453 -10.4160 -10.4121
-10.4078 -10.3952 -10.3798 -10.3615 -10.3545  -1.3465  -1.2754  -1.1756
 -1.1625  -1.0738  -0.9814  -0.8954  -0.8751  -0.8548  -0.8126  -0.7535
 -0.7157  -0.6863  -0.6627  -0.6376  -0.6114  -0.6051  -0.5934  -0.5790
 -0.5717  -0.5642  -0.5508  -0.5468  -0.5312  -0.5246  -0.5188  -0.4963
 -0.4871  -0.4635  -0.4531  -0.4359  -0.4156  -0.3972  -0.3917  -0.3698
 -0.2815

          Ground-State Mulliken Net Atomic Charges

     Atom                 Charge (a.u.)    Spin (a.u.)
  --------------------------------------------------------
      1 C                    -0.204300      -0.015181
      2 C                    -0.125383      -0.004849
      3 C                    -0.345639      -0.490612
      4 C                    -0.390815       0.133149
      5 C                    -0.278902      -0.358212
      6 C                     0.063027       0.045754
      7 C                    -0.412535      -0.005003
      8 H                     0.326943       0.001048
      9 H                     0.288128      -0.006497
     10 H                     0.377916       0.021620
     11 H                     0.301142      -0.007022
     12 H                     0.326275       0.008634
     13 H                     0.251825       0.000103
     14 O                    -0.382986      -0.001815
     15 H                     0.239873       0.000210
     16 H                     0.330081       0.000132
     17 O                    -0.409276       0.001049
     18 H                     0.339932      -0.001154
     19 O                    -0.122806      -0.030771
     20 O                    -0.117046      -0.017203
     21 O                     0.033451       0.889261
     22 O                    -0.088905       0.837359
  --------------------------------------------------------
  Sum of atomic charges =     0.000000

                    Cartesian Multipole Moments
 -----------------------------------------------------------------
    Charge (ESU x 10^10)
                 0.0000
    Dipole Moment (Debye)
         X      -1.3064      Y       1.1533      Z      -4.3449
       Tot       4.6814
    Quadrupole Moments (Debye-Ang)
        XX     -80.1479     XY       9.3071     YY     -82.9170
        XZ       8.6397     YZ       1.4087     ZZ     -70.3831

 Total job time:  12635.13s(wall), 178660.92s(cpu)
        *  Thank you very much for using Q-Chem.  Have a nice day.  *
