 Q-Chem 5.4, Q-Chem, Inc., Pleasanton, CA (2021)
 Q-Chem 5.4.2 for Intel X86 EM64T Linux

User input:
--------------------------------------------------------------
$molecule
0 1
C         5.3002344054   -0.0494932619    0.1168029281
O         4.9783805414   -0.7937221182    1.0148099504
H         5.8302869929    0.8909525859    0.3162394265
H         5.0745200604   -0.2875316058   -0.9309837050
$end

$rem
BASIS = 6-311++G(2df,2p)
GUI = 2
JOB_TYPE = Frequency
METHOD = wB97M-V
SOLVENT_METHOD = SMD
SCF_ALGORITHM = DIIS_GDM
MAX_SCF_CYCLES = 400
SCF_CONVERGENCE = 7
THRESH = 12
$end
--------------------------------------------------------------

   13    -114.5089335600      5.18e-08  Convergence criterion met
 Total energy in the final basis set =     -114.5024071593
   11    -114.5089322213      4.26e-08  Convergence criterion met
 Total energy in the final basis set =     -114.5024064641
   11    -114.5089338094      4.17e-08  Convergence criterion met
 Total energy in the final basis set =     -114.5024067678
   11    -114.5089305464      4.33e-08  Convergence criterion met
 Total energy in the final basis set =     -114.5024056350
   11    -114.5089342640      4.09e-08  Convergence criterion met
 Total energy in the final basis set =     -114.5024063820
   11    -114.5089343756      4.19e-08  Convergence criterion met
 Total energy in the final basis set =     -114.5024061877
   11    -114.5089298762      4.38e-08  Convergence criterion met
 Total energy in the final basis set =     -114.5024052744
   11    -114.5089341039      4.11e-08  Convergence criterion met
 Total energy in the final basis set =     -114.5024071442
   11    -114.5089333370      5.69e-08  Convergence criterion met
 Total energy in the final basis set =     -114.5024069151
   12    -114.5089333364      7.69e-08  Convergence criterion met
 Total energy in the final basis set =     -114.5024069118
   12    -114.5089336342      9.48e-08  Convergence criterion met
 Total energy in the final basis set =     -114.5024072573
   12    -114.5089333014      5.85e-08  Convergence criterion met
 Total energy in the final basis set =     -114.5024068755
   12    -114.5089335795      7.69e-08  Convergence criterion met
 Total energy in the final basis set =     -114.5024072038
   12    -114.5089326976      7.08e-08  Convergence criterion met
 Total energy in the final basis set =     -114.5024061837
   11    -114.5089333565      4.89e-08  Convergence criterion met
 Total energy in the final basis set =     -114.5024070640

                    Orbital Energies (a.u.)
 --------------------------------------------------------------

 Alpha MOs
 -- Occupied --
-19.3522 -10.4364  -1.1938  -0.7457  -0.6035  -0.5705  -0.5112  -0.3779

          Ground-State Mulliken Net Atomic Charges

     Atom                 Charge (a.u.)
  ----------------------------------------
      1 C                     0.065606
      2 O                    -0.358845
      3 H                     0.146796
      4 H                     0.146443
  ----------------------------------------
  Sum of atomic charges =     0.000000

                    Cartesian Multipole Moments
 -----------------------------------------------------------------
    Charge (ESU x 10^10)
                -0.0000
    Dipole Moment (Debye)
         X       0.9211      Y       2.1283      Z      -2.5664
       Tot       3.4590
    Quadrupole Moments (Debye-Ang)
        XX      -2.2837     XY      10.6426     YY     -13.4496
        XZ     -12.5997     YZ       2.3822     ZZ     -14.5327

             Standard Nuclear Orientation (Angstroms)
    I     Atom           X                Y                Z
 ----------------------------------------------------------------
    1      C       5.3002344054    -0.0494932619     0.1168029281
    2      O       4.9783805414    -0.7937221182     1.0148099504
    3      H       5.8302869929     0.8909525859     0.3162394265
    4      H       5.0745200604    -0.2875316058    -0.9309837050
 ----------------------------------------------------------------

 Frequency:      1223.17                1256.25                1512.17
 Force Cnst:      1.1981                 1.2397                 1.5023
 Red. Mass:       1.3591                 1.3333                 1.1151
 IR Intens:       10.405                 20.058                 37.611
 Frequency:      1772.09                2981.64                3069.82
 Force Cnst:     12.8553                 5.4772                 6.2284
 Red. Mass:       6.9480                 1.0457                 1.1218
 IR Intens:      239.810                 74.077                 77.900

 STANDARD THERMODYNAMIC QUANTITIES AT   298.15 K  AND     1.00 ATM

   This Molecule has  0 Imaginary Frequencies
   Zero point vibrational energy:       16.891 kcal/mol

   Atom    1 Element C  Has Mass   12.00000
   Atom    2 Element O  Has Mass   15.99491
   Atom    3 Element H  Has Mass    1.00783
   Atom    4 Element H  Has Mass    1.00783
   Molecular Mass:    30.010570 amu
   Principal axes and moments of inertia in amu*Bohr^2:
                             1           2           3
    Eigenvalues --        6.32632    46.54610    52.87242
          X              -0.26605     0.40305     0.87565
          Y              -0.61508     0.62846    -0.47615
          Z               0.74222     0.66528    -0.08070
   Rotational Symmetry Number is   1
   The Molecule is an Asymmetric Top
   Translational Enthalpy:        0.889 kcal/mol
   Rotational Enthalpy:           0.889 kcal/mol
   Vibrational Enthalpy:         16.912 kcal/mol
   gas constant (RT):             0.592 kcal/mol
   Translational Entropy:        36.130  cal/mol.K
   Rotational Entropy:           17.394  cal/mol.K
   Vibrational Entropy:           0.085  cal/mol.K

   Total Enthalpy:               19.282 kcal/mol
   Total Entropy:                53.609  cal/mol.K
 Total job time:  115.57s(wall), 1735.72s(cpu)
        *  Thank you very much for using Q-Chem.  Have a nice day.  *
