 Q-Chem 5.4, Q-Chem, Inc., Pleasanton, CA (2021)
 Q-Chem 5.4.1 for Intel X86 EM64T Linux

User input:
--------------------------------------------------------------
$molecule
0 1
C         5.2992299737   -0.0519626164    0.1197376968
O         4.9761854079   -0.7987404975    1.0208551633
H         5.8320804839    0.8950021716    0.3120475066
H         5.0759261345   -0.2840934577   -0.9357717667
$end

$rem
BASIS = 6-311++G(2df,2p)
GUI = 2
JOB_TYPE = Optimization
METHOD = wB97M-V
SCF_ALGORITHM = DIIS_GDM
MAX_SCF_CYCLES = 400
GEOM_OPT_MAX_CYCLES = 150
SCF_CONVERGENCE = 7
THRESH = 12
Solvent_method = SMD
$end
--------------------------------------------------------------

   13    -114.5088328555      5.68e-08  Convergence criterion met
 Total energy in the final basis set =     -114.5023184878
   11    -114.5088975054      3.68e-08  Convergence criterion met
 Total energy in the final basis set =     -114.5023688061
   11    -114.5089246916      4.32e-08  Convergence criterion met
 Total energy in the final basis set =     -114.5023970832
   11    -114.5089297005      4.28e-08  Convergence criterion met
 Total energy in the final basis set =     -114.5024029542
   11    -114.5089309801      4.26e-08  Convergence criterion met
 Total energy in the final basis set =     -114.5024043878

             Standard Nuclear Orientation (Angstroms)
    I     Atom           X                Y                Z
 ----------------------------------------------------------------
    1      C       5.3002344054    -0.0494932619     0.1168029281
    2      O       4.9783805414    -0.7937221182     1.0148099504
    3      H       5.8302869929     0.8909525859     0.3162394265
    4      H       5.0745200604    -0.2875316058    -0.9309837050
 ----------------------------------------------------------------

   11    -114.5089335599      4.27e-08  Convergence criterion met
 Total energy in the final basis set =     -114.5024071592
 Final energy is   -114.502407159196
 **  OPTIMIZATION CONVERGED  **

                    Orbital Energies (a.u.)
 --------------------------------------------------------------

 Alpha MOs
 -- Occupied --
-19.3522 -10.4363  -1.1938  -0.7458  -0.6036  -0.5705  -0.5112  -0.3779

          Ground-State Mulliken Net Atomic Charges

     Atom                 Charge (a.u.)
  ----------------------------------------
      1 C                     0.065599
      2 O                    -0.358946
      3 H                     0.146751
      4 H                     0.146596
  ----------------------------------------
  Sum of atomic charges =     0.000000

                    Cartesian Multipole Moments
 -----------------------------------------------------------------
    Charge (ESU x 10^10)
                -0.0000
    Dipole Moment (Debye)
         X       0.9209      Y       2.1283      Z      -2.5672
       Tot       3.4595
    Quadrupole Moments (Debye-Ang)
        XX      -2.2845     XY      10.6420     YY     -13.4492
        XZ     -12.6040     YZ       2.3827     ZZ     -14.5333

 Total job time:  65.71s(wall), 243.69s(cpu)
        *  Thank you very much for using Q-Chem.  Have a nice day.  *
