 Q-Chem 5.4, Q-Chem, Inc., Pleasanton, CA (2021)
 Q-Chem 5.4.1 for Intel X86 EM64T Linux

User input:
--------------------------------------------------------------
$molecule
0 1
C         2.2867888836   -0.2689100452   -1.0553124086
O         2.4283557895   -1.4466784570   -1.2764297375
C         2.5398893323    0.2922720639    0.3514951789
O         2.1362154940   -0.3371581728    1.3027665679
C         3.2995555436    1.5804806938    0.4478405416
C         4.7180081424    1.3669934628   -0.0707196150
O         4.5641546148    1.0046335528   -1.4477228412
O         5.5955187324    0.0964867232   -1.8233996319
C         5.5725255836    2.6222789187    0.0533253514
O         5.7432390541    2.8476814022    1.4322368038
O         6.8050433082    2.4841727311   -0.6105323774
H         1.9500149247    0.4405604585   -1.8221124136
H         3.3175029835    1.9148637660    1.4808610489
H         2.8052496829    2.3340890525   -0.1706793061
H         5.2061653168    0.5446633053    0.4563834879
H         5.1566626281   -0.7621502599   -1.7132605220
H         5.0762691398    3.4683275902   -0.4237181558
H         6.1071594545    3.7324456259    1.5513118710
H         7.2376889910    1.6811334882   -0.2926207424
$end

$rem
BASIS = 6-311++G(2df,2p)
GUI = 2
JOB_TYPE = Frequency
METHOD = wB97M-V
SOLVENT_METHOD = SMD
SCF_ALGORITHM = DIIS_GDM
MAX_SCF_CYCLES = 400
SCF_CONVERGENCE = 7
THRESH = 12
$end
--------------------------------------------------------------

   17    -646.6282263203      5.81e-08  Convergence criterion met
 Total energy in the final basis set =     -646.6196124944
   17    -646.6282248398      3.51e-08  Convergence criterion met
 Total energy in the final basis set =     -646.6196120708
   16    -646.6282270131      8.58e-08  Convergence criterion met
 Total energy in the final basis set =     -646.6196121309
   16    -646.6282209662      9.93e-08  Convergence criterion met
 Total energy in the final basis set =     -646.6196107742
   17    -646.6282282572      3.63e-08  Convergence criterion met
 Total energy in the final basis set =     -646.6196108188
   16    -646.6282233356      9.52e-08  Convergence criterion met
 Total energy in the final basis set =     -646.6196116260
   16    -646.6282275002      9.66e-08  Convergence criterion met
 Total energy in the final basis set =     -646.6196115559
   16    -646.6282258314      9.65e-08  Convergence criterion met
 Total energy in the final basis set =     -646.6196123912
   16    -646.6282254671      9.77e-08  Convergence criterion met
 Total energy in the final basis set =     -646.6196123746
   16    -646.6282270115      9.77e-08  Convergence criterion met
 Total energy in the final basis set =     -646.6196122609
   16    -646.6282251092      9.75e-08  Convergence criterion met
 Total energy in the final basis set =     -646.6196122079
   16    -646.6282254842      9.75e-08  Convergence criterion met
 Total energy in the final basis set =     -646.6196118775
   16    -646.6282258736      9.78e-08  Convergence criterion met
 Total energy in the final basis set =     -646.6196118284
   16    -646.6282263080      9.77e-08  Convergence criterion met
 Total energy in the final basis set =     -646.6196124088
   16    -646.6282260745      9.75e-08  Convergence criterion met
 Total energy in the final basis set =     -646.6196123216

                    Orbital Energies (a.u.)
 --------------------------------------------------------------

 Alpha MOs
 -- Occupied --
-19.4109 -19.3998 -19.3617 -19.3595 -19.3481 -19.3465 -10.4596 -10.4531
-10.4485 -10.4133 -10.3587  -1.2772  -1.2205  -1.2041  -1.1948  -1.1370
 -1.0608  -0.9196  -0.8478  -0.7873  -0.7394  -0.6874  -0.6741  -0.6485
 -0.6396  -0.6131  -0.5973  -0.5846  -0.5770  -0.5680  -0.5561  -0.5383
 -0.5224  -0.5134  -0.5010  -0.4667  -0.4581  -0.4383  -0.4336  -0.4200
 -0.4091  -0.3915  -0.3606

          Ground-State Mulliken Net Atomic Charges

     Atom                 Charge (a.u.)
  ----------------------------------------
      1 C                    -0.112332
      2 O                    -0.334836
      3 C                     0.499676
      4 O                    -0.417532
      5 C                    -0.480772
      6 C                    -0.030701
      7 O                    -0.023371
      8 O                    -0.356358
      9 C                    -0.296349
     10 O                    -0.413857
     11 O                    -0.452371
     12 H                     0.259911
     13 H                     0.220246
     14 H                     0.272972
     15 H                     0.335476
     16 H                     0.348744
     17 H                     0.295427
     18 H                     0.341816
     19 H                     0.344213
  ----------------------------------------
  Sum of atomic charges =     0.000000

                    Cartesian Multipole Moments
 -----------------------------------------------------------------
    Charge (ESU x 10^10)
                 0.0000
    Dipole Moment (Debye)
         X       0.4490      Y       4.5513      Z       0.3942
       Tot       4.5904
    Quadrupole Moments (Debye-Ang)
        XX     -63.4073     XY       6.4587     YY     -57.1201
        XZ      12.2103     YZ       5.6006     ZZ     -75.3062

             Standard Nuclear Orientation (Angstroms)
    I     Atom           X                Y                Z
 ----------------------------------------------------------------
    1      C       2.2867888836    -0.2689100452    -1.0553124086
    2      O       2.4283557895    -1.4466784570    -1.2764297375
    3      C       2.5398893323     0.2922720639     0.3514951789
    4      O       2.1362154940    -0.3371581728     1.3027665679
    5      C       3.2995555436     1.5804806938     0.4478405416
    6      C       4.7180081424     1.3669934628    -0.0707196150
    7      O       4.5641546148     1.0046335528    -1.4477228412
    8      O       5.5955187324     0.0964867232    -1.8233996319
    9      C       5.5725255836     2.6222789187     0.0533253514
   10      O       5.7432390541     2.8476814022     1.4322368038
   11      O       6.8050433082     2.4841727311    -0.6105323774
   12      H       1.9500149247     0.4405604585    -1.8221124136
   13      H       3.3175029835     1.9148637660     1.4808610489
   14      H       2.8052496829     2.3340890525    -0.1706793061
   15      H       5.2061653168     0.5446633053     0.4563834879
   16      H       5.1566626281    -0.7621502599    -1.7132605220
   17      H       5.0762691398     3.4683275902    -0.4237181558
   18      H       6.1071594545     3.7324456259     1.5513118710
   19      H       7.2376889910     1.6811334882    -0.2926207424
 ----------------------------------------------------------------

 Frequency:        26.27                  60.81                  66.67
 Force Cnst:      0.0042                 0.0169                 0.0172
 Red. Mass:      10.3862                 7.7615                 6.5794
 IR Intens:        2.141                  6.475                  1.038
 Frequency:        91.27                 151.74                 171.90
 Force Cnst:      0.0266                 0.0810                 0.1011
 Red. Mass:       5.4247                 5.9727                 5.8089
 IR Intens:       30.765                  3.480                  4.477
 Frequency:       224.48                 262.79                 272.13
 Force Cnst:      0.1491                 0.1059                 0.0640
 Red. Mass:       5.0209                 2.6018                 1.4661
 IR Intens:       34.330                 54.952                148.414
 Frequency:       295.44                 299.91                 333.13
 Force Cnst:      0.0708                 0.1824                 0.1530
 Red. Mass:       1.3759                 3.4419                 2.3402
 IR Intens:      103.451                 27.433                 44.299
 Frequency:       349.14                 387.17                 450.41
 Force Cnst:      0.0945                 0.3146                 0.4196
 Red. Mass:       1.3159                 3.5620                 3.5102
 IR Intens:      229.610                 31.246                 30.754
 Frequency:       469.66                 523.95                 584.58
 Force Cnst:      0.4276                 0.7814                 0.7282
 Red. Mass:       3.2898                 4.8313                 3.6167
 IR Intens:      101.674                 15.119                 32.284
 Frequency:       605.82                 694.39                 828.02
 Force Cnst:      1.2205                 0.9793                 1.0116
 Red. Mass:       5.6441                 3.4473                 2.5043
 IR Intens:       64.693                 16.031                 12.682
 Frequency:       893.41                 995.00                1021.08
 Force Cnst:      1.3901                 1.8101                 1.6019
 Red. Mass:       2.9559                 3.1032                 2.6077
 IR Intens:       55.068                  6.002                 23.915
 Frequency:      1042.27                1055.58                1092.44
 Force Cnst:      2.1793                 1.6073                 2.6623
 Red. Mass:       3.4050                 2.4483                 3.7863
 IR Intens:       17.620                 62.835                 32.410
 Frequency:      1159.55                1194.88                1221.93
 Force Cnst:      1.6211                 1.7518                 1.3665
 Red. Mass:       2.0464                 2.0825                 1.5533
 IR Intens:      147.427                134.918                 39.636
 Frequency:      1244.96                1260.82                1291.78
 Force Cnst:      1.3255                 1.3070                 2.2787
 Red. Mass:       1.4515                 1.3954                 2.3177
 IR Intens:       59.560                  2.301                291.549
 Frequency:      1326.51                1346.07                1382.03
 Force Cnst:      1.9849                 1.4045                 1.6769
 Red. Mass:       1.9146                 1.3157                 1.4901
 IR Intens:       46.820                 14.135                 27.481
 Frequency:      1398.05                1437.62                1441.35
 Force Cnst:      1.5154                 1.3553                 1.6025
 Red. Mass:       1.3160                 1.1130                 1.3092
 IR Intens:       40.938                 41.625                 97.860
 Frequency:      1443.85                1478.12                1778.83
 Force Cnst:      1.3794                 2.3821                20.0256
 Red. Mass:       1.1230                 1.8505                10.7416
 IR Intens:       58.891                 80.289                229.021
 Frequency:      1789.47                3039.23                3066.51
 Force Cnst:     22.0203                 5.9243                 5.9221
 Red. Mass:      11.6715                 1.0886                 1.0689
 IR Intens:      424.127                 50.760                  1.480
 Frequency:      3080.24                3095.96                3164.25
 Force Cnst:      6.0533                 6.1431                 6.4759
 Red. Mass:       1.0829                 1.0878                 1.0978
 IR Intens:        0.982                 59.790                  0.714
 Frequency:      3732.19                3795.93                3821.62
 Force Cnst:      8.7695                 9.0498                 9.1789
 Red. Mass:       1.0686                 1.0660                 1.0667
 IR Intens:      110.525                110.323                142.969

 STANDARD THERMODYNAMIC QUANTITIES AT   298.15 K  AND     1.00 ATM

   This Molecule has  0 Imaginary Frequencies
   Zero point vibrational energy:       88.978 kcal/mol

   Atom    1 Element C  Has Mass   12.00000
   Atom    2 Element O  Has Mass   15.99491
   Atom    3 Element C  Has Mass   12.00000
   Atom    4 Element O  Has Mass   15.99491
   Atom    5 Element C  Has Mass   12.00000
   Atom    6 Element C  Has Mass   12.00000
   Atom    7 Element O  Has Mass   15.99491
   Atom    8 Element O  Has Mass   15.99491
   Atom    9 Element C  Has Mass   12.00000
   Atom   10 Element O  Has Mass   15.99491
   Atom   11 Element O  Has Mass   15.99491
   Atom   12 Element H  Has Mass    1.00783
   Atom   13 Element H  Has Mass    1.00783
   Atom   14 Element H  Has Mass    1.00783
   Atom   15 Element H  Has Mass    1.00783
   Atom   16 Element H  Has Mass    1.00783
   Atom   17 Element H  Has Mass    1.00783
   Atom   18 Element H  Has Mass    1.00783
   Atom   19 Element H  Has Mass    1.00783
   Molecular Mass:   164.032100 amu
   Principal axes and moments of inertia in amu*Bohr^2:
                             1           2           3
    Eigenvalues --     1016.53368  2466.51322  3231.21703
          X               0.76923    -0.38602    -0.50918
          Y               0.63277     0.34952     0.69097
          Z               0.08876     0.85371    -0.51312
   Rotational Symmetry Number is   1
   The Molecule is an Asymmetric Top
   Translational Enthalpy:        0.889 kcal/mol
   Rotational Enthalpy:           0.889 kcal/mol
   Vibrational Enthalpy:         94.909 kcal/mol
   gas constant (RT):             0.592 kcal/mol
   Translational Entropy:        41.193  cal/mol.K
   Rotational Entropy:           30.472  cal/mol.K
   Vibrational Entropy:          39.369  cal/mol.K

   Total Enthalpy:               97.279 kcal/mol
   Total Entropy:               111.034  cal/mol.K
 Total job time:  21688.35s(wall), 301426.09s(cpu)
        *  Thank you very much for using Q-Chem.  Have a nice day.  *
