 Q-Chem 5.4, Q-Chem, Inc., Pleasanton, CA (2021)
 Q-Chem 5.4.1 for Intel X86 EM64T Linux

User input:
--------------------------------------------------------------
$molecule
0 1
C         2.2603454155   -0.2506522821   -1.0719215177
O         2.3161506162   -1.4413924916   -1.2987790099
C         2.5527996776    0.2681338074    0.3451342044
O         2.2214861235   -0.4215639394    1.2902209227
C         3.2915044544    1.5733267162    0.4632414047
C         4.7128022948    1.3714586534   -0.0649761664
O         4.5563233454    0.9981167064   -1.4422957780
O         5.6133472174    0.1017321562   -1.8058674600
C         5.5707341865    2.6285812128    0.0371476665
O         5.7108828250    2.8929134011    1.4132998174
O         6.8129083128    2.4639741015   -0.6038066697
H         1.9779751633    0.4890990715   -1.8380712938
H         3.3179668612    1.8849777799    1.5086006018
H         2.7883456139    2.3419108213   -0.1368426026
H         5.2077720906    0.5504488038    0.4666062382
H         5.1666854774   -0.7612838737   -1.6984054797
H         5.0845765030    3.4602861366   -0.4850401751
H         6.1420917782    3.7597814528    1.4960618668
H         7.2413096433    1.6863376660   -0.2045934697
$end

$rem
BASIS = 6-311++G(2df,2p)
GUI = 2
JOB_TYPE = Optimization
METHOD = wB97M-V
SCF_ALGORITHM = DIIS_GDM
MAX_SCF_CYCLES = 400
GEOM_OPT_MAX_CYCLES = 150
SCF_CONVERGENCE = 7
THRESH = 12
Solvent_method = SMD
$end
--------------------------------------------------------------

   17    -646.6275296239      5.88e-08  Convergence criterion met
 Total energy in the final basis set =     -646.6188742607
   17    -646.6277909126      7.23e-08  Convergence criterion met
 Total energy in the final basis set =     -646.6190619979
   17    -646.6260724280      4.13e-08  Convergence criterion met
 Total energy in the final basis set =     -646.6173673108
   17    -646.6279098387      4.78e-08  Convergence criterion met
 Total energy in the final basis set =     -646.6193062562
   17    -646.6273896008      5.64e-08  Convergence criterion met
 Total energy in the final basis set =     -646.6186410535
   16    -646.6282631354      7.25e-08  Convergence criterion met
 Total energy in the final basis set =     -646.6195770527
   17    -646.6282358950      4.50e-08  Convergence criterion met
 Total energy in the final basis set =     -646.6195894182
   16    -646.6282414289      7.59e-08  Convergence criterion met
 Total energy in the final basis set =     -646.6195987402
   17    -646.6282425817      4.98e-08  Convergence criterion met
 Total energy in the final basis set =     -646.6196049118
   15    -646.6282352172      9.51e-08  Convergence criterion met
 Total energy in the final basis set =     -646.6196094977
   17    -646.6282213613      4.86e-08  Convergence criterion met
 Total energy in the final basis set =     -646.6196117665

             Standard Nuclear Orientation (Angstroms)
    I     Atom           X                Y                Z
 ----------------------------------------------------------------
    1      C       2.2867888836    -0.2689100452    -1.0553124086
    2      O       2.4283557895    -1.4466784570    -1.2764297375
    3      C       2.5398893323     0.2922720639     0.3514951789
    4      O       2.1362154940    -0.3371581728     1.3027665679
    5      C       3.2995555436     1.5804806938     0.4478405416
    6      C       4.7180081424     1.3669934628    -0.0707196150
    7      O       4.5641546148     1.0046335528    -1.4477228412
    8      O       5.5955187324     0.0964867232    -1.8233996319
    9      C       5.5725255836     2.6222789187     0.0533253514
   10      O       5.7432390541     2.8476814022     1.4322368038
   11      O       6.8050433082     2.4841727311    -0.6105323774
   12      H       1.9500149247     0.4405604585    -1.8221124136
   13      H       3.3175029835     1.9148637660     1.4808610489
   14      H       2.8052496829     2.3340890525    -0.1706793061
   15      H       5.2061653168     0.5446633053     0.4563834879
   16      H       5.1566626281    -0.7621502599    -1.7132605220
   17      H       5.0762691398     3.4683275902    -0.4237181558
   18      H       6.1071594545     3.7324456259     1.5513118710
   19      H       7.2376889910     1.6811334882    -0.2926207424
 ----------------------------------------------------------------

   16    -646.6282263194      8.21e-08  Convergence criterion met
 Total energy in the final basis set =     -646.6196124935
 Final energy is   -646.619612493476
 **  OPTIMIZATION CONVERGED  **

                    Orbital Energies (a.u.)
 --------------------------------------------------------------

 Alpha MOs
 -- Occupied --
-19.4109 -19.3998 -19.3617 -19.3595 -19.3481 -19.3466 -10.4596 -10.4531
-10.4485 -10.4133 -10.3587  -1.2772  -1.2205  -1.2041  -1.1948  -1.1370
 -1.0608  -0.9196  -0.8478  -0.7873  -0.7393  -0.6874  -0.6741  -0.6485
 -0.6396  -0.6131  -0.5973  -0.5846  -0.5770  -0.5680  -0.5561  -0.5383
 -0.5224  -0.5134  -0.5010  -0.4667  -0.4581  -0.4384  -0.4336  -0.4200
 -0.4091  -0.3914  -0.3606

          Ground-State Mulliken Net Atomic Charges

     Atom                 Charge (a.u.)
  ----------------------------------------
      1 C                    -0.112328
      2 O                    -0.334837
      3 C                     0.499683
      4 O                    -0.417533
      5 C                    -0.480783
      6 C                    -0.030539
      7 O                    -0.023361
      8 O                    -0.356376
      9 C                    -0.296482
     10 O                    -0.413879
     11 O                    -0.452356
     12 H                     0.259911
     13 H                     0.220248
     14 H                     0.272972
     15 H                     0.335454
     16 H                     0.348747
     17 H                     0.295384
     18 H                     0.341822
     19 H                     0.344253
  ----------------------------------------
  Sum of atomic charges =     0.000000

                    Cartesian Multipole Moments
 -----------------------------------------------------------------
    Charge (ESU x 10^10)
                 0.0000
    Dipole Moment (Debye)
         X       0.4491      Y       4.5519      Z       0.3960
       Tot       4.5911
    Quadrupole Moments (Debye-Ang)
        XX     -63.4065     XY       6.4626     YY     -57.1183
        XZ      12.2236     YZ       5.6027     ZZ     -75.3071

 Total job time:  2404.75s(wall), 32523.41s(cpu)
        *  Thank you very much for using Q-Chem.  Have a nice day.  *
