 Q-Chem 5.4, Q-Chem, Inc., Pleasanton, CA (2021)
 Q-Chem 5.4.1 for Intel X86 EM64T Linux

User input:
--------------------------------------------------------------
$molecule
0 2
H         0.5982457874    0.8749630692    1.5800268670
C        -0.0572375520    1.1042506427    0.7513469880
C        -1.1201684287    1.8823611434    0.9071181045
H        -1.3695949260    2.3272375989    1.8614316756
C        -2.0612452203    2.1303068924   -0.2296295620
H        -3.0782147606    1.8339670192    0.0240779581
C        -1.6363076827    1.4105723098   -1.5124612683
H        -2.2172198657    1.7449564114   -2.3687929903
C        -0.1243369580    1.4532084756   -1.7166899583
H         0.1346204005    1.0126767899   -2.6785942912
C         0.2367390093    0.4925858830   -0.5935355063
H         1.2375404335    0.0778532465   -0.6723686995
O         0.4697687099    2.7173244303   -1.5444741472
H         0.2863130648    3.2452414232   -2.3297009728
O        -1.8979472948    0.0197168696   -1.3385003686
O        -0.6510549477   -0.5974298580   -0.8681674770
O        -2.1094943960    3.5759795989   -0.4549662374
O        -3.1574113729    3.9186612540   -1.1490912143
$end

$rem
BASIS = 6-311++G(2df,2p)
GUI = 2
JOB_TYPE = Frequency
METHOD = wB97M-V
SOLVENT_METHOD = SMD
SCF_ALGORITHM = DIIS_GDM
MAX_SCF_CYCLES = 400
SCF_CONVERGENCE = 7
THRESH = 12
$end
--------------------------------------------------------------

   22    -608.7441174973      5.90e-08  Convergence criterion met
 Total energy in the final basis set =     -608.7408079309
   18    -608.7441174717      9.30e-08  Convergence criterion met
 Total energy in the final basis set =     -608.7408076752
   18    -608.7441169534      9.29e-08  Convergence criterion met
 Total energy in the final basis set =     -608.7408076160
   18    -608.7441173864      9.30e-08  Convergence criterion met
 Total energy in the final basis set =     -608.7408079002
   18    -608.7441174319      9.29e-08  Convergence criterion met
 Total energy in the final basis set =     -608.7408077850
   18    -608.7441173537      9.29e-08  Convergence criterion met
 Total energy in the final basis set =     -608.7408074963
   18    -608.7441168104      9.31e-08  Convergence criterion met
 Total energy in the final basis set =     -608.7408075335
   18    -608.7441167974      9.30e-08  Convergence criterion met
 Total energy in the final basis set =     -608.7408075560
   18    -608.7441172935      7.74e-08  Convergence criterion met
 Total energy in the final basis set =     -608.7408076501
   18    -608.7441170004      7.60e-08  Convergence criterion met
 Total energy in the final basis set =     -608.7408074175
   19    -608.7441168602      3.81e-08  Convergence criterion met
 Total energy in the final basis set =     -608.7408073104
   19    -608.7441173516      3.99e-08  Convergence criterion met
 Total energy in the final basis set =     -608.7408077154
   18    -608.7441172895      8.93e-08  Convergence criterion met
 Total energy in the final basis set =     -608.7408077930
   19    -608.7441172912      4.03e-08  Convergence criterion met
 Total energy in the final basis set =     -608.7408077000
   18    -608.7441171881      7.82e-08  Convergence criterion met
 Total energy in the final basis set =     -608.7408076468

                    Orbital Energies (a.u.)
 --------------------------------------------------------------

 Alpha MOs
 -- Occupied --
-19.4670 -19.4183 -19.4079 -19.4063 -19.3509 -10.4173 -10.4126 -10.4104
-10.4100 -10.3582 -10.3554  -1.3461  -1.2764  -1.1746  -1.0754  -1.0304
 -0.9573  -0.8851  -0.8387  -0.7618  -0.7367  -0.6937  -0.6761  -0.6503
 -0.6406  -0.6212  -0.6019  -0.5821  -0.5665  -0.5591  -0.5362  -0.5292
 -0.5076  -0.4942  -0.4809  -0.4617  -0.4283  -0.4137  -0.4104  -0.3949
 -0.3694  -0.3614

 Beta MOs
 -- Occupied --
-19.4565 -19.4079 -19.4063 -19.3997 -19.3508 -10.4177 -10.4123 -10.4104
-10.4101 -10.3581 -10.3554  -1.3198  -1.2763  -1.1744  -1.0750  -1.0090
 -0.9459  -0.8841  -0.8306  -0.7615  -0.7327  -0.6910  -0.6737  -0.6413
 -0.6284  -0.5987  -0.5888  -0.5720  -0.5617  -0.5535  -0.5281  -0.5121
 -0.5063  -0.4917  -0.4759  -0.4599  -0.4199  -0.4063  -0.3948  -0.3702
 -0.3620

          Ground-State Mulliken Net Atomic Charges

     Atom                 Charge (a.u.)    Spin (a.u.)
  --------------------------------------------------------
      1 H                     0.306790       0.000004
      2 C                    -0.295316      -0.007556
      3 C                    -0.105671       0.014946
      4 H                     0.307207      -0.000863
      5 C                    -0.466460      -0.017976
      6 H                     0.306500       0.005303
      7 C                    -0.252491       0.016141
      8 H                     0.288642      -0.001196
      9 C                    -0.045341       0.002865
     10 H                     0.298839       0.000485
     11 C                    -0.147939       0.000343
     12 H                     0.281306       0.000012
     13 O                    -0.409761       0.005247
     14 H                     0.342040      -0.000842
     15 O                    -0.122955       0.002259
     16 O                    -0.142915      -0.000458
     17 O                     0.069857       0.314760
     18 O                    -0.212333       0.666525
  --------------------------------------------------------
  Sum of atomic charges =     0.000000

                    Cartesian Multipole Moments
 -----------------------------------------------------------------
    Charge (ESU x 10^10)
                 0.0000
    Dipole Moment (Debye)
         X       2.5049      Y       0.1117      Z      -0.5678
       Tot       2.5709
    Quadrupole Moments (Debye-Ang)
        XX     -69.4120     XY       3.1745     YY     -78.8781
        XZ      -4.1281     YZ      -3.9309     ZZ     -51.3937

             Standard Nuclear Orientation (Angstroms)
    I     Atom           X                Y                Z
 ----------------------------------------------------------------
    1      H       0.5982457874     0.8749630692     1.5800268670
    2      C      -0.0572375520     1.1042506427     0.7513469880
    3      C      -1.1201684287     1.8823611434     0.9071181045
    4      H      -1.3695949260     2.3272375989     1.8614316756
    5      C      -2.0612452203     2.1303068924    -0.2296295620
    6      H      -3.0782147606     1.8339670192     0.0240779581
    7      C      -1.6363076827     1.4105723098    -1.5124612683
    8      H      -2.2172198657     1.7449564114    -2.3687929903
    9      C      -0.1243369580     1.4532084756    -1.7166899583
   10      H       0.1346204005     1.0126767899    -2.6785942912
   11      C       0.2367390093     0.4925858830    -0.5935355063
   12      H       1.2375404335     0.0778532465    -0.6723686995
   13      O       0.4697687099     2.7173244303    -1.5444741472
   14      H       0.2863130648     3.2452414232    -2.3297009728
   15      O      -1.8979472948     0.0197168696    -1.3385003686
   16      O      -0.6510549477    -0.5974298580    -0.8681674770
   17      O      -2.1094943960     3.5759795989    -0.4549662374
   18      O      -3.1574113729     3.9186612540    -1.1490912143
 ----------------------------------------------------------------

 Frequency:        78.95                 114.26                 171.33
 Force Cnst:      0.0317                 0.0548                 0.1341
 Red. Mass:       8.6215                 7.1191                 7.7533
 IR Intens:        7.665                  5.680                  4.273
 Frequency:       204.66                 232.79                 270.58
 Force Cnst:      0.1515                 0.0397                 0.1851
 Red. Mass:       6.1406                 1.2436                 4.2922
 IR Intens:        4.518                221.666                 11.418
 Frequency:       306.03                 329.40                 403.15
 Force Cnst:      0.2809                 0.3634                 0.4180
 Red. Mass:       5.0911                 5.6849                 4.3651
 IR Intens:       11.028                 27.022                  4.355
 Frequency:       477.50                 517.75                 565.70
 Force Cnst:      0.8498                 0.7388                 1.1075
 Red. Mass:       6.3255                 4.6774                 5.8739
 IR Intens:       23.469                  7.440                  1.678
 Frequency:       625.97                 629.91                 736.16
 Force Cnst:      1.2970                 1.3869                 0.8595
 Red. Mass:       5.6183                 5.9323                 2.6919
 IR Intens:       11.578                  3.500                 28.962
 Frequency:       793.02                 855.30                 875.17
 Force Cnst:      1.0179                 2.7536                 1.4242
 Red. Mass:       2.7472                 6.3887                 3.1560
 IR Intens:       30.473                 55.251                  0.712
 Frequency:       896.83                 963.47                 984.65
 Force Cnst:      1.3727                 1.6550                 2.4741
 Red. Mass:       2.8966                 3.0260                 4.3312
 IR Intens:       14.513                 41.624                 29.082
 Frequency:      1007.99                1017.19                1034.15
 Force Cnst:      2.6602                 1.6596                 1.0169
 Red. Mass:       4.4437                 2.7224                 1.6138
 IR Intens:      134.467                 19.910                 13.548
 Frequency:      1041.28                1082.97                1115.28
 Force Cnst:      2.4563                 1.0975                 0.9425
 Red. Mass:       3.8449                 1.5882                 1.2860
 IR Intens:       33.662                  9.813                 13.493
 Frequency:      1137.83                1212.22                1262.78
 Force Cnst:      1.0028                 0.9692                 1.7440
 Red. Mass:       1.3147                 1.1195                 1.8563
 IR Intens:        1.168                 20.059                  5.921
 Frequency:      1271.87                1274.46                1296.81
 Force Cnst:      2.9166                 2.9809                 1.2264
 Red. Mass:       3.0602                 3.1149                 1.2377
 IR Intens:       15.820                 60.656                 10.725
 Frequency:      1316.34                1329.46                1341.18
 Force Cnst:      2.3537                 1.3579                 1.3622
 Red. Mass:       2.3055                 1.3039                 1.2853
 IR Intens:      140.153                 40.739                  9.744
 Frequency:      1370.82                1378.76                1416.48
 Force Cnst:      1.9672                 1.8885                 2.0723
 Red. Mass:       1.7768                 1.6861                 1.7530
 IR Intens:        5.553                 24.067                 30.673
 Frequency:      1463.99                1734.89                3102.86
 Force Cnst:      2.5252                12.3895                 6.1651
 Red. Mass:       1.9998                 6.9865                 1.0868
 IR Intens:       36.484                  0.643                 30.176
 Frequency:      3108.86                3136.61                3153.68
 Force Cnst:      6.1806                 6.3089                 6.3828
 Red. Mass:       1.0854                 1.0884                 1.0892
 IR Intens:        4.296                  3.344                  6.440
 Frequency:      3196.08                3216.01                3826.33
 Force Cnst:      6.5459                 6.7034                 9.2030
 Red. Mass:       1.0876                 1.1000                 1.0669
 IR Intens:        2.088                  8.155                155.953

 STANDARD THERMODYNAMIC QUANTITIES AT   298.15 K  AND     1.00 ATM

   This Molecule has  0 Imaginary Frequencies
   Zero point vibrational energy:       84.173 kcal/mol

   Atom    1 Element H  Has Mass    1.00783
   Atom    2 Element C  Has Mass   12.00000
   Atom    3 Element C  Has Mass   12.00000
   Atom    4 Element H  Has Mass    1.00783
   Atom    5 Element C  Has Mass   12.00000
   Atom    6 Element H  Has Mass    1.00783
   Atom    7 Element C  Has Mass   12.00000
   Atom    8 Element H  Has Mass    1.00783
   Atom    9 Element C  Has Mass   12.00000
   Atom   10 Element H  Has Mass    1.00783
   Atom   11 Element C  Has Mass   12.00000
   Atom   12 Element H  Has Mass    1.00783
   Atom   13 Element O  Has Mass   15.99491
   Atom   14 Element H  Has Mass    1.00783
   Atom   15 Element O  Has Mass   15.99491
   Atom   16 Element O  Has Mass   15.99491
   Atom   17 Element O  Has Mass   15.99491
   Atom   18 Element O  Has Mass   15.99491
   Molecular Mass:   159.029360 amu
   Principal axes and moments of inertia in amu*Bohr^2:
                             1           2           3
    Eigenvalues --      951.96288  1814.78943  1886.83674
          X              -0.54246     0.83604    -0.08231
          Y               0.84004     0.54077    -0.04362
          Z              -0.00804     0.09281     0.99565
   Rotational Symmetry Number is   1
   The Molecule is an Asymmetric Top
   Translational Enthalpy:        0.889 kcal/mol
   Rotational Enthalpy:           0.889 kcal/mol
   Vibrational Enthalpy:         88.195 kcal/mol
   gas constant (RT):             0.592 kcal/mol
   Translational Entropy:        41.101  cal/mol.K
   Rotational Entropy:           29.567  cal/mol.K
   Vibrational Entropy:          23.298  cal/mol.K

   Total Enthalpy:               90.565 kcal/mol
   Total Entropy:                93.966  cal/mol.K
 Total job time:  25340.28s(wall), 363011.10s(cpu)
        *  Thank you very much for using Q-Chem.  Have a nice day.  *
