 Q-Chem 5.4, Q-Chem, Inc., Pleasanton, CA (2021)
 Q-Chem 5.4.1 for Intel X86 EM64T Linux

User input:
--------------------------------------------------------------
$molecule
0 2
H         0.6033049604    0.8625309159    1.5876683427
C        -0.0519091588    1.0976404832    0.7541705723
C        -1.1260767138    1.8704258269    0.9142888335
H        -1.3817647611    2.3075829540    1.8758594349
C        -2.0617145414    2.1335798988   -0.2296552023
H        -3.0922104948    1.8669286697    0.0208147840
C        -1.6428158275    1.3984072142   -1.5087790752
H        -2.2361200950    1.7215989276   -2.3671094234
C        -0.1284703551    1.4575098086   -1.7193779221
H         0.1341620576    1.0216136712   -2.6886165983
C         0.2454089873    0.4938075762   -0.5978606296
H         1.2532833036    0.0844638740   -0.6808818448
O         0.4498513505    2.7278300866   -1.5329707526
H         0.2058960823    3.2685632616   -2.3022788303
O        -1.9000480251    0.0057559017   -1.3148596824
O        -0.6319369488   -0.6078137244   -0.8719965577
O        -2.0667215412    3.5817097698   -0.4642470408
O        -3.0891242793    3.9322980845   -1.2071395080
$end

$rem
BASIS = 6-311++G(2df,2p)
GUI = 2
JOB_TYPE = Optimization
METHOD = wB97M-V
SCF_ALGORITHM = DIIS_GDM
MAX_SCF_CYCLES = 400
GEOM_OPT_MAX_CYCLES = 150
SCF_CONVERGENCE = 7
THRESH = 12
Solvent_method = SMD
$end
--------------------------------------------------------------

   22    -608.7436055102      7.70e-08  Convergence criterion met
 Total energy in the final basis set =     -608.7402948075
   19    -608.7440646202      5.47e-08  Convergence criterion met
 Total energy in the final basis set =     -608.7407701938
   18    -608.7440918876      9.13e-08  Convergence criterion met
 Total energy in the final basis set =     -608.7407977609
   19    -608.7441021554      5.77e-08  Convergence criterion met
 Total energy in the final basis set =     -608.7408031003
   19    -608.7441077844      5.20e-08  Convergence criterion met
 Total energy in the final basis set =     -608.7408052690
   19    -608.7441135005      3.73e-08  Convergence criterion met
 Total energy in the final basis set =     -608.7408070030

             Standard Nuclear Orientation (Angstroms)
    I     Atom           X                Y                Z
 ----------------------------------------------------------------
    1      H       0.5982457874     0.8749630692     1.5800268670
    2      C      -0.0572375520     1.1042506427     0.7513469880
    3      C      -1.1201684287     1.8823611434     0.9071181045
    4      H      -1.3695949260     2.3272375989     1.8614316756
    5      C      -2.0612452203     2.1303068924    -0.2296295620
    6      H      -3.0782147606     1.8339670192     0.0240779581
    7      C      -1.6363076827     1.4105723098    -1.5124612683
    8      H      -2.2172198657     1.7449564114    -2.3687929903
    9      C      -0.1243369580     1.4532084756    -1.7166899583
   10      H       0.1346204005     1.0126767899    -2.6785942912
   11      C       0.2367390093     0.4925858830    -0.5935355063
   12      H       1.2375404335     0.0778532465    -0.6723686995
   13      O       0.4697687099     2.7173244303    -1.5444741472
   14      H       0.2863130648     3.2452414232    -2.3297009728
   15      O      -1.8979472948     0.0197168696    -1.3385003686
   16      O      -0.6510549477    -0.5974298580    -0.8681674770
   17      O      -2.1094943960     3.5759795989    -0.4549662374
   18      O      -3.1574113729     3.9186612540    -1.1490912143
 ----------------------------------------------------------------

   18    -608.7441174978      8.90e-08  Convergence criterion met
 Total energy in the final basis set =     -608.7408079315
 Final energy is   -608.740807931454
 **  OPTIMIZATION CONVERGED  **

                    Orbital Energies (a.u.)
 --------------------------------------------------------------

 Alpha MOs
 -- Occupied --
-19.4670 -19.4182 -19.4079 -19.4063 -19.3509 -10.4172 -10.4126 -10.4104
-10.4100 -10.3582 -10.3554  -1.3464  -1.2764  -1.1746  -1.0754  -1.0304
 -0.9572  -0.8851  -0.8387  -0.7618  -0.7368  -0.6937  -0.6761  -0.6504
 -0.6407  -0.6213  -0.6019  -0.5821  -0.5665  -0.5591  -0.5362  -0.5292
 -0.5076  -0.4942  -0.4809  -0.4617  -0.4282  -0.4136  -0.4104  -0.3948
 -0.3694  -0.3614

 Beta MOs
 -- Occupied --
-19.4565 -19.4079 -19.4063 -19.3997 -19.3508 -10.4176 -10.4123 -10.4104
-10.4101 -10.3581 -10.3554  -1.3201  -1.2763  -1.1744  -1.0750  -1.0090
 -0.9459  -0.8841  -0.8305  -0.7615  -0.7327  -0.6910  -0.6737  -0.6413
 -0.6284  -0.5987  -0.5889  -0.5721  -0.5617  -0.5535  -0.5281  -0.5121
 -0.5063  -0.4918  -0.4759  -0.4599  -0.4199  -0.4063  -0.3947  -0.3702
 -0.3620

          Ground-State Mulliken Net Atomic Charges

     Atom                 Charge (a.u.)    Spin (a.u.)
  --------------------------------------------------------
      1 H                     0.306783       0.000004
      2 C                    -0.295444      -0.007539
      3 C                    -0.105669       0.014925
      4 H                     0.307206      -0.000861
      5 C                    -0.466243      -0.017976
      6 H                     0.306486       0.005299
      7 C                    -0.252706       0.016151
      8 H                     0.288629      -0.001197
      9 C                    -0.045308       0.002868
     10 H                     0.298836       0.000485
     11 C                    -0.147868       0.000336
     12 H                     0.281311       0.000012
     13 O                    -0.409775       0.005246
     14 H                     0.342048      -0.000842
     15 O                    -0.122946       0.002257
     16 O                    -0.142915      -0.000457
     17 O                     0.070017       0.314973
     18 O                    -0.212442       0.666318
  --------------------------------------------------------
  Sum of atomic charges =    -0.000000

                    Cartesian Multipole Moments
 -----------------------------------------------------------------
    Charge (ESU x 10^10)
                -0.0000
    Dipole Moment (Debye)
         X       2.5057      Y       0.1120      Z      -0.5685
       Tot       2.5718
    Quadrupole Moments (Debye-Ang)
        XX     -69.4176     XY       3.1778     YY     -78.8769
        XZ      -4.1273     YZ      -3.9330     ZZ     -51.3916

 Total job time:  1807.17s(wall), 25445.70s(cpu)
        *  Thank you very much for using Q-Chem.  Have a nice day.  *
