 Q-Chem 5.4, Q-Chem, Inc., Pleasanton, CA (2021)
 Q-Chem 5.4.1 for Intel X86 EM64T Linux

User input:
--------------------------------------------------------------
$molecule
0 2
C        -0.8449004139    0.0274036975    0.1053575599
C        -2.3014371111    0.0690530884   -0.2180220699
O        -3.0459823405    0.0870730091    1.0133565176
C        -0.0691917048   -1.1277357420   -0.1454878271
C         1.2482795821   -1.1817184149    0.1753518810
C         1.9629601026   -0.0400161025    0.8220297296
O         3.1110329962    0.3699296626    0.0390053045
C         1.0958518069    1.1579448931    1.0155355892
C        -0.2145904720    1.1636298001    0.6839271185
H        -2.5816908607   -0.8025009717   -0.8114413304
H        -2.5359368077    0.9688900405   -0.7923834012
H        -3.9702529874    0.2441392798    0.7921559915
H        -0.5468646916   -1.9822552710   -0.6096742598
H         1.8317465859   -2.0719213789   -0.0237687694
H         2.3435893641   -0.3645158988    1.8006060655
H         3.7655398412   -0.3359262710    0.0911603945
H         1.5648633890    2.0343051943    1.4438898160
H        -0.8078869783    2.0550134853    0.8502013899
$end

$rem
BASIS = 6-311++G(2df,2p)
GUI = 2
JOB_TYPE = Frequency
METHOD = wB97M-V
SOLVENT_METHOD = SMD
SCF_ALGORITHM = DIIS_GDM
MAX_SCF_CYCLES = 400
SCF_CONVERGENCE = 7
THRESH = 12
UNRESTRICTED = 1
SYMMETRY_IGNORE = 1
$end
--------------------------------------------------------------

   19    -422.5329435319      7.08e-08  Convergence criterion met
 Total energy in the final basis set =     -422.5271651297
   16    -422.5329422881      8.68e-08  Convergence criterion met
 Total energy in the final basis set =     -422.5271641297
   17    -422.5329426237      5.93e-08  Convergence criterion met
 Total energy in the final basis set =     -422.5271639750
   16    -422.5329428623      7.75e-08  Convergence criterion met
 Total energy in the final basis set =     -422.5271643961
   16    -422.5329424148      1.00e-07  Convergence criterion met
 Total energy in the final basis set =     -422.5271640740
   17    -422.5329435625      4.02e-08  Convergence criterion met
 Total energy in the final basis set =     -422.5271647958
   17    -422.5329427070      4.14e-08  Convergence criterion met
 Total energy in the final basis set =     -422.5271646689
   16    -422.5329415137      9.12e-08  Convergence criterion met
 Total energy in the final basis set =     -422.5271650170
   17    -422.5329432596      4.71e-08  Convergence criterion met
 Total energy in the final basis set =     -422.5271649755
   17    -422.5329430240      4.72e-08  Convergence criterion met
 Total energy in the final basis set =     -422.5271648887
   17    -422.5329435236      4.73e-08  Convergence criterion met
 Total energy in the final basis set =     -422.5271648535
   17    -422.5329432887      4.68e-08  Convergence criterion met
 Total energy in the final basis set =     -422.5271646461
   17    -422.5329428587      4.77e-08  Convergence criterion met
 Total energy in the final basis set =     -422.5271646949
   17    -422.5329435202      4.67e-08  Convergence criterion met
 Total energy in the final basis set =     -422.5271650856
   17    -422.5329434044      4.76e-08  Convergence criterion met
 Total energy in the final basis set =     -422.5271650339

                    Orbital Energies (a.u.)
 --------------------------------------------------------------

 Alpha MOs
 -- Occupied --
-19.3379 -19.3366 -10.3992 -10.3851 -10.3585 -10.3474 -10.3473 -10.3430
-10.3429  -1.1545  -1.1518  -0.9794  -0.8860  -0.8773  -0.7969  -0.7233
 -0.7121  -0.6284  -0.6263  -0.6199  -0.5848  -0.5744  -0.5314  -0.5245
 -0.5197  -0.4902  -0.4836  -0.4543  -0.4410  -0.4254  -0.3970  -0.3886
 -0.3648  -0.2676

 Beta MOs
 -- Occupied --
-19.3364 -19.3357 -10.3999 -10.3855 -10.3508 -10.3455 -10.3454 -10.3425
-10.3417  -1.1511  -1.1499  -0.9723  -0.8766  -0.8719  -0.7953  -0.7181
 -0.7035  -0.6249  -0.6212  -0.6155  -0.5803  -0.5680  -0.5285  -0.5226
 -0.5158  -0.4860  -0.4790  -0.4426  -0.4303  -0.4164  -0.3906  -0.3860
 -0.3482

          Ground-State Mulliken Net Atomic Charges

     Atom                 Charge (a.u.)    Spin (a.u.)
  --------------------------------------------------------
      1 C                     0.805804       0.428971
      2 C                    -0.662971       0.021311
      3 O                    -0.410625       0.006173
      4 C                    -0.776696      -0.112109
      5 C                     0.045414       0.349988
      6 C                    -0.834308       0.028846
      7 O                    -0.409118       0.017907
      8 C                     0.176322       0.308432
      9 C                    -0.345495      -0.109963
     10 H                     0.202069      -0.000515
     11 H                     0.200738       0.014398
     12 H                     0.318961       0.008380
     13 H                     0.270985       0.006903
     14 H                     0.311641      -0.011122
     15 H                     0.179465       0.044001
     16 H                     0.327111       0.002556
     17 H                     0.308076      -0.009035
     18 H                     0.292627       0.004876
  --------------------------------------------------------
  Sum of atomic charges =    -0.000000

                    Cartesian Multipole Moments
 -----------------------------------------------------------------
    Charge (ESU x 10^10)
                -0.0000
    Dipole Moment (Debye)
         X      -1.1422      Y      -1.7506      Z      -0.8492
       Tot       2.2562
    Quadrupole Moments (Debye-Ang)
        XX     -40.8654     XY      -9.5850     YY     -51.0272
        XZ      10.2449     YZ       2.2754     ZZ     -58.2932

             Standard Nuclear Orientation (Angstroms)
    I     Atom           X                Y                Z
 ----------------------------------------------------------------
    1      C      -0.8449004139     0.0274036975     0.1053575599
    2      C      -2.3014371111     0.0690530884    -0.2180220699
    3      O      -3.0459823405     0.0870730091     1.0133565176
    4      C      -0.0691917048    -1.1277357420    -0.1454878271
    5      C       1.2482795821    -1.1817184149     0.1753518810
    6      C       1.9629601026    -0.0400161025     0.8220297296
    7      O       3.1110329962     0.3699296626     0.0390053045
    8      C       1.0958518069     1.1579448931     1.0155355892
    9      C      -0.2145904720     1.1636298001     0.6839271185
   10      H      -2.5816908607    -0.8025009717    -0.8114413304
   11      H      -2.5359368077     0.9688900405    -0.7923834012
   12      H      -3.9702529874     0.2441392798     0.7921559915
   13      H      -0.5468646916    -1.9822552710    -0.6096742598
   14      H       1.8317465859    -2.0719213789    -0.0237687694
   15      H       2.3435893641    -0.3645158988     1.8006060655
   16      H       3.7655398412    -0.3359262710     0.0911603945
   17      H       1.5648633890     2.0343051943     1.4438898160
   18      H      -0.8078869783     2.0550134853     0.8502013899
 ----------------------------------------------------------------

 Frequency:        24.62                  68.92                 148.53
 Force Cnst:      0.0014                 0.0136                 0.0775
 Red. Mass:       3.8212                 4.8768                 5.9624
 IR Intens:        3.392                  5.717                  5.829
 Frequency:       209.37                 279.97                 283.66
 Force Cnst:      0.0282                 0.0838                 0.0699
 Red. Mass:       1.0918                 1.8141                 1.4754
 IR Intens:      227.450                 45.178                173.310
 Frequency:       330.15                 377.97                 406.06
 Force Cnst:      0.1901                 0.3290                 0.3604
 Red. Mass:       2.9607                 3.9091                 3.7103
 IR Intens:        9.346                 12.798                 32.948
 Frequency:       450.04                 558.57                 595.90
 Force Cnst:      0.3505                 0.5105                 1.4410
 Red. Mass:       2.9374                 2.7771                 6.8876
 IR Intens:        1.809                 17.960                  2.870
 Frequency:       661.68                 760.91                 771.80
 Force Cnst:      1.0918                 0.4593                 1.0787
 Red. Mass:       4.2327                 1.3463                 3.0735
 IR Intens:       24.366                  6.994                 20.262
 Frequency:       790.23                 883.24                 968.38
 Force Cnst:      0.8723                 1.3715                 1.5316
 Red. Mass:       2.3708                 2.9839                 2.7720
 IR Intens:       73.130                 48.676                 27.666
 Frequency:       978.65                 992.37                1002.20
 Force Cnst:      1.0020                 0.8450                 0.7886
 Red. Mass:       1.7756                 1.4563                 1.3326
 IR Intens:       16.270                 31.213                  1.463
 Frequency:      1016.42                1024.55                1048.82
 Force Cnst:      3.9374                 2.8278                 1.1561
 Red. Mass:       6.4687                 4.5723                 1.7838
 IR Intens:      352.075                 60.492                 10.890
 Frequency:      1152.34                1173.05                1199.01
 Force Cnst:      0.8397                 0.9842                 0.9719
 Red. Mass:       1.0733                 1.2140                 1.1474
 IR Intens:        0.829                 11.483                172.306
 Frequency:      1205.41                1230.89                1261.62
 Force Cnst:      0.9925                 1.4230                 1.6815
 Red. Mass:       1.1593                 1.5940                 1.7930
 IR Intens:       33.191                  2.498                  7.387
 Frequency:      1311.79                1329.85                1367.65
 Force Cnst:      1.8133                 1.3060                 1.5590
 Red. Mass:       1.7885                 1.2534                 1.4147
 IR Intens:        5.734                 26.668                 11.131
 Frequency:      1433.21                1443.96                1483.18
 Force Cnst:      2.4153                 1.8319                 2.5311
 Red. Mass:       1.9957                 1.4912                 1.9529
 IR Intens:       21.234                 53.644                  2.753
 Frequency:      1499.46                1539.03                1631.95
 Force Cnst:      1.5289                 6.6536                 9.0437
 Red. Mass:       1.1541                 4.7677                 5.7635
 IR Intens:        2.702                  1.198                  1.326
 Frequency:      2970.50                3038.22                3085.89
 Force Cnst:      5.6106                 5.7601                 6.1988
 Red. Mass:       1.0792                 1.0591                 1.1048
 IR Intens:       39.147                 69.594                 54.450
 Frequency:      3174.91                3175.90                3192.92
 Force Cnst:      6.4523                 6.4637                 6.5759
 Red. Mass:       1.0864                 1.0877                 1.0948
 IR Intens:        8.241                 17.584                 29.621
 Frequency:      3197.93                3820.81                3827.11
 Force Cnst:      6.5991                 9.1736                 9.2037
 Red. Mass:       1.0952                 1.0665                 1.0665
 IR Intens:        9.384                114.822                 98.714

 STANDARD THERMODYNAMIC QUANTITIES AT   298.15 K  AND     1.00 ATM

   This Molecule has  0 Imaginary Frequencies
   Zero point vibrational energy:       92.035 kcal/mol

   Atom    1 Element C  Has Mass   12.00000
   Atom    2 Element C  Has Mass   12.00000
   Atom    3 Element O  Has Mass   15.99491
   Atom    4 Element C  Has Mass   12.00000
   Atom    5 Element C  Has Mass   12.00000
   Atom    6 Element C  Has Mass   12.00000
   Atom    7 Element O  Has Mass   15.99491
   Atom    8 Element C  Has Mass   12.00000
   Atom    9 Element C  Has Mass   12.00000
   Atom   10 Element H  Has Mass    1.00783
   Atom   11 Element H  Has Mass    1.00783
   Atom   12 Element H  Has Mass    1.00783
   Atom   13 Element H  Has Mass    1.00783
   Atom   14 Element H  Has Mass    1.00783
   Atom   15 Element H  Has Mass    1.00783
   Atom   16 Element H  Has Mass    1.00783
   Atom   17 Element H  Has Mass    1.00783
   Atom   18 Element H  Has Mass    1.00783
   Molecular Mass:   125.060290 amu
   Principal axes and moments of inertia in amu*Bohr^2:
                             1           2           3
    Eigenvalues --      421.39857  1900.17615  2164.94840
          X               0.99993     0.00261     0.01125
          Y               0.00196     0.92136    -0.38869
          Z              -0.01138     0.38869     0.92130
   Rotational Symmetry Number is   1
   The Molecule is an Asymmetric Top
   Translational Enthalpy:        0.889 kcal/mol
   Rotational Enthalpy:           0.889 kcal/mol
   Vibrational Enthalpy:         95.958 kcal/mol
   gas constant (RT):             0.592 kcal/mol
   Translational Entropy:        40.384  cal/mol.K
   Rotational Entropy:           28.940  cal/mol.K
   Vibrational Entropy:          25.445  cal/mol.K

   Total Enthalpy:               98.328 kcal/mol
   Total Entropy:                94.770  cal/mol.K
 Total job time:  30548.19s(wall), 236186.51s(cpu)
        *  Thank you very much for using Q-Chem.  Have a nice day.  *
