 Q-Chem 5.4, Q-Chem, Inc., Pleasanton, CA (2021)
 Q-Chem 5.4.1 for Intel X86 EM64T Linux

User input:
--------------------------------------------------------------
$molecule
0 2
C        -0.8591999942   -0.0390983043    0.1650081042
C        -2.3154201813   -0.0100047004   -0.1896539291
O        -3.0629693480    0.4505971624    0.9398157454
C        -0.0446894558   -1.1525560386   -0.1678053865
C         1.2861911199   -1.1747841497    0.1216970195
C         1.9843565521   -0.0390895273    0.8087481837
O         3.0753847979    0.4701488445    0.0030083830
C         1.0686268219    1.1078624970    1.1033557949
C        -0.2551087091    1.0854554295    0.8004948015
H        -2.6450745343   -1.0117931907   -0.4975027191
H        -2.4798748624    0.6644631023   -1.0437092355
H        -3.9527444481    0.6627051860    0.6163438963
H        -0.5045834447   -2.0037859226   -0.6659848927
H         1.8953936864   -2.0376430858   -0.1380752836
H         2.4182380545   -0.4030810351    1.7564931247
H         3.7589327266   -0.2203176446    0.0035604338
H         1.5165460306    1.9785755019    1.5754863765
H        -0.8788755120    1.9431379755    1.0405192829
$end

$rem
BASIS = 6-311++G(2df,2p)
GUI = 2
JOB_TYPE = Optimization
METHOD = wB97M-V
SCF_ALGORITHM = DIIS_GDM
MAX_SCF_CYCLES = 400
GEOM_OPT_MAX_CYCLES = 150
SCF_CONVERGENCE = 7
THRESH = 12
Solvent_method = SMD
$end
--------------------------------------------------------------

   19    -422.5322927481      9.10e-08  Convergence criterion met
 Total energy in the final basis set =     -422.5264662329
   17    -422.5327711101      5.25e-08  Convergence criterion met
 Total energy in the final basis set =     -422.5269866708
   17    -422.5327956023      4.65e-08  Convergence criterion met
 Total energy in the final basis set =     -422.5270126868
   16    -422.5328377758      8.29e-08  Convergence criterion met
 Total energy in the final basis set =     -422.5270554208
   16    -422.5328785077      7.61e-08  Convergence criterion met
 Total energy in the final basis set =     -422.5270990693
   16    -422.5329134917      7.01e-08  Convergence criterion met
 Total energy in the final basis set =     -422.5271351378
   17    -422.5329266039      4.97e-08  Convergence criterion met
 Total energy in the final basis set =     -422.5271483883
   16    -422.5329334878      4.40e-08  Convergence criterion met
 Total energy in the final basis set =     -422.5271547686
   16    -422.5329377513      3.69e-08  Convergence criterion met
 Total energy in the final basis set =     -422.5271584894
   16    -422.5329414153      7.45e-08  Convergence criterion met
 Total energy in the final basis set =     -422.5271618780
   16    -422.5329434837      8.45e-08  Convergence criterion met
 Total energy in the final basis set =     -422.5271643402

             Standard Nuclear Orientation (Angstroms)
    I     Atom           X                Y                Z
 ----------------------------------------------------------------
    1      C      -0.8449004139     0.0274036975     0.1053575599
    2      C      -2.3014371111     0.0690530884    -0.2180220699
    3      O      -3.0459823405     0.0870730091     1.0133565176
    4      C      -0.0691917048    -1.1277357420    -0.1454878271
    5      C       1.2482795821    -1.1817184149     0.1753518810
    6      C       1.9629601026    -0.0400161025     0.8220297296
    7      O       3.1110329962     0.3699296626     0.0390053045
    8      C       1.0958518069     1.1579448931     1.0155355892
    9      C      -0.2145904720     1.1636298001     0.6839271185
   10      H      -2.5816908607    -0.8025009717    -0.8114413304
   11      H      -2.5359368077     0.9688900405    -0.7923834012
   12      H      -3.9702529874     0.2441392798     0.7921559915
   13      H      -0.5468646916    -1.9822552710    -0.6096742598
   14      H       1.8317465859    -2.0719213789    -0.0237687694
   15      H       2.3435893641    -0.3645158988     1.8006060655
   16      H       3.7655398412    -0.3359262710     0.0911603945
   17      H       1.5648633890     2.0343051943     1.4438898160
   18      H      -0.8078869783     2.0550134853     0.8502013899
 ----------------------------------------------------------------

   16    -422.5329435316      4.69e-08  Convergence criterion met
 Total energy in the final basis set =     -422.5271651294
 Final energy is   -422.527165129371
 **  OPTIMIZATION CONVERGED  **

                    Orbital Energies (a.u.)
 --------------------------------------------------------------

 Alpha MOs
 -- Occupied --
-19.3379 -19.3366 -10.3992 -10.3851 -10.3586 -10.3474 -10.3473 -10.3430
-10.3429  -1.1545  -1.1518  -0.9794  -0.8860  -0.8773  -0.7969  -0.7233
 -0.7121  -0.6284  -0.6263  -0.6199  -0.5848  -0.5744  -0.5314  -0.5245
 -0.5197  -0.4902  -0.4835  -0.4543  -0.4410  -0.4254  -0.3970  -0.3886
 -0.3648  -0.2676

 Beta MOs
 -- Occupied --
-19.3364 -19.3357 -10.3998 -10.3855 -10.3508 -10.3455 -10.3454 -10.3425
-10.3417  -1.1511  -1.1499  -0.9723  -0.8766  -0.8719  -0.7953  -0.7181
 -0.7035  -0.6249  -0.6212  -0.6155  -0.5803  -0.5680  -0.5285  -0.5226
 -0.5158  -0.4860  -0.4790  -0.4426  -0.4303  -0.4164  -0.3906  -0.3860
 -0.3482

          Ground-State Mulliken Net Atomic Charges

     Atom                 Charge (a.u.)    Spin (a.u.)
  --------------------------------------------------------
      1 C                     0.805846       0.428976
      2 C                    -0.663015       0.021293
      3 O                    -0.410631       0.006174
      4 C                    -0.776696      -0.112097
      5 C                     0.045406       0.349990
      6 C                    -0.834250       0.028865
      7 O                    -0.409124       0.017906
      8 C                     0.176318       0.308394
      9 C                    -0.345482      -0.109948
     10 H                     0.202070      -0.000514
     11 H                     0.200740       0.014398
     12 H                     0.318962       0.008379
     13 H                     0.270986       0.006903
     14 H                     0.311643      -0.011122
     15 H                     0.179475       0.044000
     16 H                     0.327111       0.002557
     17 H                     0.308074      -0.009037
     18 H                     0.292566       0.004882
  --------------------------------------------------------
  Sum of atomic charges =    -0.000000

                    Cartesian Multipole Moments
 -----------------------------------------------------------------
    Charge (ESU x 10^10)
                -0.0000
    Dipole Moment (Debye)
         X      -1.1422      Y      -1.7509      Z      -0.8484
       Tot       2.2561
    Quadrupole Moments (Debye-Ang)
        XX     -40.8658     XY      -9.5849     YY     -51.0277
        XZ      10.2442     YZ       2.2773     ZZ     -58.2918

 Total job time:  3560.25s(wall), 27471.92s(cpu)
        *  Thank you very much for using Q-Chem.  Have a nice day.  *
