 Q-Chem 5.4, Q-Chem, Inc., Pleasanton, CA (2021)
 Q-Chem 5.4.1 for Intel X86 EM64T Linux

User input:
--------------------------------------------------------------
$molecule
0 1
H         1.1047836344    0.9043962068    2.1250145854
C         0.5670162773    0.8308412759    1.1892824583
C         1.2625685887    0.7488710411   -0.0096736849
H         2.3436953030    0.7581839072   -0.0152055982
C         0.5552246068    0.6544687572   -1.2026534696
H         1.0860429895    0.5899063224   -2.1430175011
C        -0.8314541116    0.6417541604   -1.2033120223
H        -1.3912243979    0.5684798649   -2.1259694812
C        -1.5137173589    0.7246646210    0.0035742645
C        -0.8210916620    0.8191573225    1.2031540196
H        -1.3693810719    0.8819328264    2.1348347953
O        -2.8881561630    0.7088040416   -0.0411343372
H        -3.2385630344    0.7724179525    0.8552059713
$end

$rem
BASIS = 6-311++G(2df,2p)
GUI = 2
JOB_TYPE = Frequency
METHOD = wB97M-V
SOLVENT_METHOD = SMD
SCF_ALGORITHM = DIIS_GDM
MAX_SCF_CYCLES = 400
SCF_CONVERGENCE = 7
THRESH = 12
SYMMETRY_IGNORE = 1
$end
--------------------------------------------------------------

   14    -307.4630290876      5.61e-08  Convergence criterion met
 Total energy in the final basis set =     -307.4579418586
   13    -307.4630290980      2.28e-08  Convergence criterion met
 Total energy in the final basis set =     -307.4579416734
   13    -307.4630286058      2.28e-08  Convergence criterion met
 Total energy in the final basis set =     -307.4579415714
   13    -307.4630290435      2.28e-08  Convergence criterion met
 Total energy in the final basis set =     -307.4579417876
   13    -307.4630290302      2.28e-08  Convergence criterion met
 Total energy in the final basis set =     -307.4579418277
   13    -307.4630289070      2.28e-08  Convergence criterion met
 Total energy in the final basis set =     -307.4579413375
   13    -307.4630282565      2.28e-08  Convergence criterion met
 Total energy in the final basis set =     -307.4579413659
   13    -307.4630282245      2.25e-08  Convergence criterion met
 Total energy in the final basis set =     -307.4579409091
   13    -307.4630280186      2.29e-08  Convergence criterion met
 Total energy in the final basis set =     -307.4579407921
   13    -307.4630281167      2.26e-08  Convergence criterion met
 Total energy in the final basis set =     -307.4579416414
   13    -307.4630296162      2.30e-08  Convergence criterion met
 Total energy in the final basis set =     -307.4579416333
   13    -307.4630291056      2.27e-08  Convergence criterion met
 Total energy in the final basis set =     -307.4579418520
   13    -307.4630290451      2.28e-08  Convergence criterion met
 Total energy in the final basis set =     -307.4579418399
   13    -307.4630287352      2.29e-08  Convergence criterion met
 Total energy in the final basis set =     -307.4579410918
   13    -307.4630278205      2.26e-08  Convergence criterion met
 Total energy in the final basis set =     -307.4579410059

                    Orbital Energies (a.u.)
 --------------------------------------------------------------

 Alpha MOs
 -- Occupied --
-19.3604 -10.4082 -10.3460 -10.3457 -10.3411 -10.3395 -10.3364  -1.1876
 -0.9820  -0.8736  -0.8620  -0.7387  -0.7173  -0.6534  -0.6062  -0.5739
 -0.5398  -0.5283  -0.5243  -0.4984  -0.4569  -0.4523  -0.4362  -0.3495
 -0.3195

          Ground-State Mulliken Net Atomic Charges

     Atom                 Charge (a.u.)
  ----------------------------------------
      1 H                     0.281693
      2 C                    -0.191835
      3 C                    -0.481073
      4 H                     0.264761
      5 C                    -0.188001
      6 H                     0.282233
      7 C                    -0.303691
      8 H                     0.270871
      9 C                    -0.113052
     10 C                    -0.021589
     11 H                     0.257377
     12 O                    -0.403762
     13 H                     0.346068
  ----------------------------------------
  Sum of atomic charges =     0.000000

                    Cartesian Multipole Moments
 -----------------------------------------------------------------
    Charge (ESU x 10^10)
                 0.0000
    Dipole Moment (Debye)
         X       0.1848      Y       0.1476      Z       1.9807
       Tot       1.9948
    Quadrupole Moments (Debye-Ang)
        XX     -38.0488     XY      -0.2858     YY     -45.8426
        XZ      -6.6609     YZ       2.2657     ZZ     -34.2824

             Standard Nuclear Orientation (Angstroms)
    I     Atom           X                Y                Z
 ----------------------------------------------------------------
    1      H       1.1047836344     0.9043962068     2.1250145854
    2      C       0.5670162773     0.8308412759     1.1892824583
    3      C       1.2625685887     0.7488710411    -0.0096736849
    4      H       2.3436953030     0.7581839072    -0.0152055982
    5      C       0.5552246068     0.6544687572    -1.2026534696
    6      H       1.0860429895     0.5899063224    -2.1430175011
    7      C      -0.8314541116     0.6417541604    -1.2033120223
    8      H      -1.3912243979     0.5684798649    -2.1259694812
    9      C      -1.5137173589     0.7246646210     0.0035742645
   10      C      -0.8210916620     0.8191573225     1.2031540196
   11      H      -1.3693810719     0.8819328264     2.1348347953
   12      O      -2.8881561630     0.7088040416    -0.0411343372
   13      H      -3.2385630344     0.7724179525     0.8552059713
 ----------------------------------------------------------------

 Frequency:       231.71                 365.73                 408.61
 Force Cnst:      0.1447                 0.0861                 0.3929
 Red. Mass:       4.5739                 1.0931                 3.9940
 IR Intens:        0.557                206.812                 15.826
 Frequency:       421.57                 521.78                 531.80
 Force Cnst:      0.3120                 0.4436                 1.2165
 Red. Mass:       2.9794                 2.7654                 7.3005
 IR Intens:        0.325                 23.274                  5.665
 Frequency:       625.31                 715.04                 784.35
 Force Cnst:      1.4767                 0.5713                 0.6209
 Red. Mass:       6.4101                 1.8967                 1.7130
 IR Intens:        0.928                 62.393                112.889
 Frequency:       822.51                 852.02                 924.88
 Force Cnst:      2.3674                 0.5342                 0.7509
 Red. Mass:       5.9393                 1.2490                 1.4899
 IR Intens:       70.182                  0.048                 14.067
 Frequency:      1003.69                1016.57                1025.56
 Force Cnst:      0.8025                 3.4987                 0.8144
 Red. Mass:       1.3521                 5.7462                 1.3142
 IR Intens:        0.001                  0.381                  0.457
 Frequency:      1050.66                1095.73                1154.05
 Force Cnst:      1.3406                 1.0332                 0.9316
 Red. Mass:       2.0612                 1.4606                 1.1873
 IR Intens:       22.950                 25.294                 30.164
 Frequency:      1177.27                1189.66                1251.94
 Force Cnst:      0.9272                 1.2422                 2.5663
 Red. Mass:       1.1355                 1.4897                 2.7790
 IR Intens:       50.914                295.074                102.841
 Frequency:      1329.58                1366.53                1505.49
 Force Cnst:      3.6862                 1.4273                 3.1977
 Red. Mass:       3.5391                 1.2973                 2.3946
 IR Intens:       14.165                 34.645                 49.144
 Frequency:      1529.66                1662.13                1674.96
 Force Cnst:      3.2490                10.1454                10.1342
 Red. Mass:       2.3567                 6.2329                 6.1310
 IR Intens:      108.303                132.376                 26.728
 Frequency:      3186.18                3192.03                3200.11
 Force Cnst:      6.5051                 6.5320                 6.5894
 Red. Mass:       1.0876                 1.0881                 1.0921
 IR Intens:        7.849                  0.787                 17.071
 Frequency:      3206.96                3215.89                3817.07
 Force Cnst:      6.6366                 6.6954                 9.1525
 Red. Mass:       1.0952                 1.0988                 1.0662
 IR Intens:       24.086                 10.327                193.428

 STANDARD THERMODYNAMIC QUANTITIES AT   298.15 K  AND     1.00 ATM

   This Molecule has  0 Imaginary Frequencies
   Zero point vibrational energy:       65.842 kcal/mol

   Atom    1 Element H  Has Mass    1.00783
   Atom    2 Element C  Has Mass   12.00000
   Atom    3 Element C  Has Mass   12.00000
   Atom    4 Element H  Has Mass    1.00783
   Atom    5 Element C  Has Mass   12.00000
   Atom    6 Element H  Has Mass    1.00783
   Atom    7 Element C  Has Mass   12.00000
   Atom    8 Element H  Has Mass    1.00783
   Atom    9 Element C  Has Mass   12.00000
   Atom   10 Element C  Has Mass   12.00000
   Atom   11 Element H  Has Mass    1.00783
   Atom   12 Element O  Has Mass   15.99491
   Atom   13 Element H  Has Mass    1.00783
   Molecular Mass:    94.041890 amu
   Principal axes and moments of inertia in amu*Bohr^2:
                             1           2           3
    Eigenvalues --      316.54282   684.81573  1001.35853
          X               0.99993     0.00739    -0.00905
          Y               0.00848     0.07354     0.99726
          Z              -0.00803     0.99727    -0.07347
   Rotational Symmetry Number is   1
   The Molecule is an Asymmetric Top
   Translational Enthalpy:        0.889 kcal/mol
   Rotational Enthalpy:           0.889 kcal/mol
   Vibrational Enthalpy:         67.499 kcal/mol
   gas constant (RT):             0.592 kcal/mol
   Translational Entropy:        39.535  cal/mol.K
   Rotational Entropy:           26.876  cal/mol.K
   Vibrational Entropy:           8.026  cal/mol.K

   Total Enthalpy:               69.869 kcal/mol
   Total Entropy:                74.437  cal/mol.K
 Total job time:  7983.56s(wall), 61048.69s(cpu)
        *  Thank you very much for using Q-Chem.  Have a nice day.  *
