 Q-Chem 5.4, Q-Chem, Inc., Pleasanton, CA (2021)
 Q-Chem 5.4.1 for Intel X86 EM64T Linux

User input:
--------------------------------------------------------------
$molecule
0 1
H         1.1087125568    0.9052134473    2.1335568418
C         0.5693171498    0.8312246408    1.1932446604
C         1.2680568993    0.7487878899   -0.0096328159
H         2.3539876157    0.7579018801   -0.0149691649
C         0.5580535204    0.6541500899   -1.2069534996
H         1.0910430831    0.5890640518   -2.1516124308
C        -0.8334746300    0.6416557885   -1.2079424456
H        -1.3968897827    0.5681868748   -2.1336433774
C        -1.5211194624    0.7248588878    0.0033807358
C        -0.8237613728    0.8196748707    1.2073029846
H        -1.3733730313    0.8829141504    2.1436806870
O        -2.8955474953    0.7086815977   -0.0466186041
H        -3.2392614506    0.7715641302    0.8603064288
$end

$rem
BASIS = 6-311++G(2df,2p)
GUI = 2
JOB_TYPE = Optimization
METHOD = wB97M-V
SCF_ALGORITHM = DIIS_GDM
MAX_SCF_CYCLES = 400
GEOM_OPT_MAX_CYCLES = 150
SCF_CONVERGENCE = 7
THRESH = 12
Solvent_method = SMD
$end
--------------------------------------------------------------

   14    -307.4627684785      6.75e-08  Convergence criterion met
 Total energy in the final basis set =     -307.4576322681
   13    -307.4630250349      2.38e-08  Convergence criterion met
 Total energy in the final basis set =     -307.4579386868

             Standard Nuclear Orientation (Angstroms)
    I     Atom           X                Y                Z
 ----------------------------------------------------------------
    1      H       1.1047836344     0.9043962068     2.1250145854
    2      C       0.5670162773     0.8308412759     1.1892824583
    3      C       1.2625685887     0.7488710411    -0.0096736849
    4      H       2.3436953030     0.7581839072    -0.0152055982
    5      C       0.5552246068     0.6544687572    -1.2026534696
    6      H       1.0860429895     0.5899063224    -2.1430175011
    7      C      -0.8314541116     0.6417541604    -1.2033120223
    8      H      -1.3912243979     0.5684798649    -2.1259694812
    9      C      -1.5137173589     0.7246646210     0.0035742645
   10      C      -0.8210916620     0.8191573225     1.2031540196
   11      H      -1.3693810719     0.8819328264     2.1348347953
   12      O      -2.8881561630     0.7088040416    -0.0411343372
   13      H      -3.2385630344     0.7724179525     0.8552059713
 ----------------------------------------------------------------

   13    -307.4630290878      2.26e-08  Convergence criterion met
 Total energy in the final basis set =     -307.4579418587
 Final energy is   -307.457941858734
 **  OPTIMIZATION CONVERGED  **

                    Orbital Energies (a.u.)
 --------------------------------------------------------------

 Alpha MOs
 -- Occupied --
-19.3604 -10.4082 -10.3460 -10.3457 -10.3411 -10.3395 -10.3364  -1.1875
 -0.9819  -0.8736  -0.8620  -0.7387  -0.7172  -0.6533  -0.6062  -0.5739
 -0.5398  -0.5283  -0.5243  -0.4984  -0.4569  -0.4522  -0.4362  -0.3495
 -0.3195

          Ground-State Mulliken Net Atomic Charges

     Atom                 Charge (a.u.)
  ----------------------------------------
      1 H                     0.281688
      2 C                    -0.191780
      3 C                    -0.481065
      4 H                     0.264760
      5 C                    -0.188013
      6 H                     0.282230
      7 C                    -0.303953
      8 H                     0.270868
      9 C                    -0.113287
     10 C                    -0.021131
     11 H                     0.257335
     12 O                    -0.404001
     13 H                     0.346349
  ----------------------------------------
  Sum of atomic charges =     0.000000

                    Cartesian Multipole Moments
 -----------------------------------------------------------------
    Charge (ESU x 10^10)
                 0.0000
    Dipole Moment (Debye)
         X       0.1844      Y       0.1475      Z       1.9822
       Tot       1.9962
    Quadrupole Moments (Debye-Ang)
        XX     -38.0493     XY      -0.2860     YY     -45.8438
        XZ      -6.6657     YZ       2.2668     ZZ     -34.2798

 Total job time:  300.59s(wall), 2314.02s(cpu)
        *  Thank you very much for using Q-Chem.  Have a nice day.  *
