 Q-Chem 5.4, Q-Chem, Inc., Pleasanton, CA (2021)
 Q-Chem 5.4.1 for Intel X86 EM64T Linux

User input:
--------------------------------------------------------------
$molecule
0 2
C         0.6642922021   -0.0547177182   -2.3665670228
O         0.1304266244   -1.0853847930   -1.5784577202
O         1.2742548623   -0.5408228672   -3.5417681276
H        -0.7411558880   -1.3085706675   -1.9237641629
H         0.5985796815   -0.6251143924   -4.2237176451
H        -0.1018716528    0.6794560493   -2.6172841762
C         1.7877148741    0.6103282194   -1.5909520804
H         2.1918397173    1.4998475857   -2.0795177746
O         2.5355092476   -0.0818580588   -0.8238757351
H         2.0469072535    0.3613948197    0.3221973599
O         0.7898115089    1.5022374482   -0.3526865446
O         1.2778900692    1.0629547747    0.7462767297
$end

$rem
BASIS = 6-311++G(2df,2p)
GUI = 2
JOB_TYPE = Frequency
METHOD = wB97M-V
SOLVENT_METHOD = SMD
SCF_ALGORITHM = DIIS_GDM
MAX_SCF_CYCLES = 400
SCF_CONVERGENCE = 7
THRESH = 12
$end

--------------------------------------------------------------

   20    -455.2267585228      4.07e-08  Convergence criterion met
 Total energy in the final basis set =     -455.2222225215
   19    -455.2267562471      8.54e-08  Convergence criterion met
 Total energy in the final basis set =     -455.2222213692
   18    -455.2267587332      9.81e-08  Convergence criterion met
 Total energy in the final basis set =     -455.2222214675
   19    -455.2267523871      8.45e-08  Convergence criterion met
 Total energy in the final basis set =     -455.2222214050
   19    -455.2267626614      8.26e-08  Convergence criterion met
 Total energy in the final basis set =     -455.2222213871
   19    -455.2267581106      7.14e-08  Convergence criterion met
 Total energy in the final basis set =     -455.2222215662
   19    -455.2267573327      8.75e-08  Convergence criterion met
 Total energy in the final basis set =     -455.2222214266
   18    -455.2267601756      9.97e-08  Convergence criterion met
 Frequency:      -690.00                  77.39                 126.34
 Force Cnst:      0.5487                 0.0262                 0.0644
 Red. Mass:       1.9561                 7.4302                 6.8455
 IR Intens:      228.959                  1.790                  6.752
 Frequency:       201.76                 227.40                 271.15
 Force Cnst:      0.0283                 0.1363                 0.0516
 Red. Mass:       1.1820                 4.4750                 1.1915
 IR Intens:      155.856                 38.024                195.454
 Frequency:       302.36                 318.43                 519.08
 Force Cnst:      0.3161                 0.4267                 0.8217
 Red. Mass:       5.8693                 7.1422                 5.1758
 IR Intens:        7.236                 43.646                409.120
 Frequency:       566.07                 696.42                 766.81
 Force Cnst:      0.9849                 1.3354                 1.8329
 Red. Mass:       5.2166                 4.6732                 5.2906
 IR Intens:      122.302                 22.610                 78.981
 Frequency:       880.70                 914.96                1036.75
 Force Cnst:      1.5704                 1.3490                 0.6826
 Red. Mass:       3.4365                 2.7351                 1.0779
 IR Intens:      207.738                 30.541                132.589
 Frequency:      1123.94                1198.59                1210.79
 Force Cnst:      0.9425                 1.2087                 0.9315
 Red. Mass:       1.2663                 1.4280                 1.0785
 IR Intens:      298.667                 25.430                 85.541
 Frequency:      1260.51                1276.55                1348.12
 Force Cnst:      2.3605                 3.4926                 1.4173
 Red. Mass:       2.5215                 3.6377                 1.3236
 IR Intens:      188.166                244.842                 91.846
 Frequency:      1352.05                1412.37                1481.10
 Force Cnst:     11.9748                 1.6044                 2.2912
 Red. Mass:      11.1182                 1.3651                 1.7727
 IR Intens:       49.419                 40.766                 87.393
 Frequency:      1582.90                1982.08                3083.04
 Force Cnst:      5.3378                 2.4034                 6.0943
 Red. Mass:       3.6158                 1.0383                 1.0882
 IR Intens:      363.509                253.720                 23.361
 Frequency:      3096.88                3826.58                3828.66
 Force Cnst:      6.1492                 9.2041                 9.2151
 Red. Mass:       1.0882                 1.0669                 1.0670
 IR Intens:       55.806                124.382                197.294

 STANDARD THERMODYNAMIC QUANTITIES AT   298.15 K  AND     1.00 ATM

   This Molecule has  1 Imaginary Frequencies
   Zero point vibrational energy:       51.421 kcal/mol

   Atom    1 Element C  Has Mass   12.00000
   Atom    2 Element O  Has Mass   15.99491
   Atom    3 Element O  Has Mass   15.99491
   Atom    4 Element H  Has Mass    1.00783
   Atom    5 Element H  Has Mass    1.00783
   Atom    6 Element H  Has Mass    1.00783
   Atom    7 Element C  Has Mass   12.00000
   Atom    8 Element H  Has Mass    1.00783
   Atom    9 Element O  Has Mass   15.99491
   Atom   10 Element H  Has Mass    1.00783
   Atom   11 Element O  Has Mass   15.99491
   Atom   12 Element O  Has Mass   15.99491
   Molecular Mass:   109.013700 amu
   Principal axes and moments of inertia in amu*Bohr^2:
                             1           2           3
    Eigenvalues --      362.59941  1000.42359  1087.63570
          X               0.13565     0.96127    -0.23991
          Y               0.46619     0.15173     0.87158
          Z               0.87422    -0.23007    -0.42755
   Rotational Symmetry Number is   1
   The Molecule is an Asymmetric Top
   Translational Enthalpy:        0.889 kcal/mol
   Rotational Enthalpy:           0.889 kcal/mol
   Vibrational Enthalpy:         54.347 kcal/mol
   gas constant (RT):             0.592 kcal/mol
   Translational Entropy:        39.975  cal/mol.K
   Rotational Entropy:           27.469  cal/mol.K
   Vibrational Entropy:          17.601  cal/mol.K

   Total Enthalpy:               56.717 kcal/mol
   Total Entropy:                85.046  cal/mol.K
 Total job time:  7568.64s(wall), 58560.30s(cpu)
        *  Thank you very much for using Q-Chem.  Have a nice day.  *
 Q-Chem 5.4, Q-Chem, Inc., Pleasanton, CA (2021)
 Q-Chem 5.4.1 for Intel X86 EM64T Linux

User input:
--------------------------------------------------------------

$molecule
read
$end

$rem
JOBTYPE            rpath
SCF_GUESS          read
RPATH_MAX_CYCLES   30
BASIS = 6-311++G(2df,2p)
METHOD = wB97M-V
SOLVENT_METHOD = SMD
SCF_ALGORITHM = DIIS_GDM
SCF_CONVERGENCE = 7
THRESH = 12
$end
--------------------------------------------------------------

 Total energy in the final basis set =     -455.2453443932
   19    -455.2474651867      2.73e-08  Convergence criterion met
 Total energy in the final basis set =     -455.2431315948
   18    -455.2493293580      8.29e-08  Convergence criterion met
 Total energy in the final basis set =     -455.2454287554
   18    -455.2492232798      7.06e-08  Convergence criterion met
 Total energy in the final basis set =     -455.2454211915
   18    -455.2493054292      7.31e-08  Convergence criterion met
 Total energy in the final basis set =     -455.2454504048
   19    -455.2494872955      4.61e-08  Convergence criterion met
 Total energy in the final basis set =     -455.2457604763
   19    -455.2485658988      2.16e-08  Convergence criterion met
 Total energy in the final basis set =     -455.2442749400
   19    -455.2497270403      4.13e-08  Convergence criterion met
 Total energy in the final basis set =     -455.2458843882

                    Orbital Energies (a.u.)
 --------------------------------------------------------------

 Alpha MOs
 -- Occupied --
-19.4757 -19.4299 -19.3582 -19.3507 -19.3502 -10.4643 -10.4548  -1.3634
 -1.2130  -1.1829  -1.1421  -1.0229  -0.8543  -0.7452  -0.7066  -0.6749
 -0.6494  -0.6363  -0.6283  -0.5826  -0.5596  -0.5125  -0.5083  -0.4882
 -0.4321  -0.4252  -0.4222  -0.4155  -0.3853

 Beta MOs
 -- Occupied --
-19.4644 -19.4118 -19.3581 -19.3506 -19.3503 -10.4647 -10.4544  -1.3375
 -1.2121  -1.1818  -1.1420  -0.9924  -0.8453  -0.7396  -0.6982  -0.6692
 -0.6422  -0.6198  -0.6064  -0.5707  -0.5159  -0.5109  -0.5052  -0.4862
 -0.4255  -0.4176  -0.4077  -0.4016

          Ground-State Mulliken Net Atomic Charges

     Atom                 Charge (a.u.)    Spin (a.u.)
  --------------------------------------------------------
      1 C                    -0.006567       0.017107
      2 O                    -0.441883      -0.000985
      3 O                    -0.441816       0.000954
      4 H                     0.349674       0.000241
      5 H                     0.342071       0.000215
      6 H                     0.257797      -0.000427
      7 C                    -0.116662      -0.012737
      8 H                     0.267736       0.012354
      9 O                    -0.397791       0.002765
     10 H                     0.332194      -0.004296
     11 O                     0.030386       0.339886
     12 O                    -0.175140       0.644923
  --------------------------------------------------------
  Sum of atomic charges =     0.000000

                    Cartesian Multipole Moments
 -----------------------------------------------------------------
    Charge (ESU x 10^10)
                 0.0000
    Dipole Moment (Debye)
         X      -3.7343      Y       1.2696      Z      -3.7208
       Tot       5.4223
    Quadrupole Moments (Debye-Ang)
        XX     -45.8044     XY       7.0007     YY     -42.7159
        XZ      10.3732     YZ      -3.9947     ZZ     -26.6448

             Standard Nuclear Orientation (Angstroms)
    I     Atom           X                Y                Z
 ----------------------------------------------------------------
    1      C       0.6642922021    -0.0547177182    -2.3665670228
    2      O       0.1304266244    -1.0853847930    -1.5784577202
    3      O       1.2742548623    -0.5408228672    -3.5417681276
    4      H      -0.7411558880    -1.3085706675    -1.9237641629
    5      H       0.5985796815    -0.6251143924    -4.2237176451
    6      H      -0.1018716528     0.6794560493    -2.6172841762
    7      C       1.7877148741     0.6103282194    -1.5909520804
    8      H       2.1918397173     1.4998475857    -2.0795177746
    9      O       2.5355092476    -0.0818580588    -0.8238757351
   10      H       2.0469072535     0.3613948197     0.3221973599
   11      O       0.7898115089     1.5022374482    -0.3526865446
   12      O       1.2778900692     1.0629547747     0.7462767297
 ----------------------------------------------------------------

 Total job time:  7193.61s(wall), 55738.64s(cpu)
        *  Thank you very much for using Q-Chem.  Have a nice day.  *
