 Q-Chem 5.4, Q-Chem, Inc., Pleasanton, CA (2021)
 Q-Chem 5.4.1 for Intel X86 EM64T Linux

User input:
--------------------------------------------------------------
$molecule
0 2
C    0.6367210   -0.0979375   -2.3596865
O    0.3791925   -1.3708903   -1.8154062
O    1.0499029   -0.1652195   -3.6990846
H   -0.4750214   -1.6733017   -2.1451719
H    0.2741256   -0.3608150   -4.2369820
H   -0.2539934    0.5267268   -2.2753110
C    1.8522431    0.4607773   -1.4889623
H    2.5335504    1.1073850   -2.0458371
O    2.2936050   -0.2282567   -0.5106019
H    1.8575217    0.5156047    0.4408663
O    1.0371518    1.8284494   -0.5511236
O    1.2691993    1.4772279    0.6571839
$end

$rem
BASIS = 6-311++G(2df,2p)
GUI = 2
JOB_TYPE = Frequency
METHOD = wB97M-V
SCF_ALGORITHM = DIIS_GDM
MAX_SCF_CYCLES = 400
SCF_CONVERGENCE = 6
THRESH = 11
solvent_method = SMD
$end

--------------------------------------------------------------

   17    -455.2205481597      6.90e-07  Convergence criterion met
 Total energy in the final basis set =     -455.2158295664
   15    -455.2205728163      8.35e-07  Convergence criterion met
 Total energy in the final basis set =     -455.2158535807
   15    -455.2205215158      6.53e-07  Convergence criterion met
 Total energy in the final basis set =     -455.2158035121
   15    -455.2205434202      8.01e-07  Convergence criterion met
 Total energy in the final basis set =     -455.2158282203
   15    -455.2205511340      8.56e-07  Convergence criterion met
 Total energy in the final basis set =     -455.2158287837
   15    -455.2205846278      7.00e-07  Convergence criterion met
 Total energy in the final basis set =     -455.2158707208
   15    -455.2205101442      8.48e-07  Convergence criterion met
 Total energy in the final basis set =     -455.2157864164
   15    -455.2205419079      7.51e-07  Convergence criterion met
 Frequency:      -853.44                 -38.83                 124.05
 Force Cnst:      0.6548                 0.0067                 0.0642
 Red. Mass:       1.5258                 7.5710                 7.0855
 IR Intens:      409.781                  2.959                  6.608
 Frequency:       232.42                 250.35                 320.80
 Force Cnst:      0.1600                 0.0519                 0.1139
 Red. Mass:       5.0270                 1.4043                 1.8786
 IR Intens:       68.696                112.019                 50.282
 Frequency:       329.95                 359.27                 494.36
 Force Cnst:      0.1463                 0.2118                 0.5805
 Red. Mass:       2.2809                 2.7856                 4.0312
 IR Intens:       71.127                 77.296                586.752
 Frequency:       562.55                 686.21                 709.87
 Force Cnst:      1.0325                 1.2517                 1.9149
 Red. Mass:       5.5376                 4.5115                 6.4498
 IR Intens:       51.752                 75.301                  4.365
 Frequency:       789.57                 853.20                1017.02
 Force Cnst:      2.4479                 1.4659                 0.6564
 Red. Mass:       6.6643                 3.4178                 1.0771
 IR Intens:       87.902                 55.037                132.521
 Frequency:      1091.82                1204.96                1224.73
 Force Cnst:      0.8799                 1.1636                 1.1236
 Red. Mass:       1.2528                 1.3602                 1.2714
 IR Intens:      221.642                 82.211                108.878
 Frequency:      1249.22                1282.88                1335.99
 Force Cnst:      1.8035                 3.3352                 1.4071
 Red. Mass:       1.9615                 3.4395                 1.3381
 IR Intens:       45.949                304.573                159.813
 Frequency:      1350.85                1411.48                1455.96
 Force Cnst:     14.8289                 1.5987                 2.0059
 Red. Mass:      13.7926                 1.3619                 1.6061
 IR Intens:       61.600                 73.556                 83.402
 Frequency:      1536.03                1925.05                3082.59
 Force Cnst:      5.3683                 2.2553                 6.0833
 Red. Mass:       3.8618                 1.0329                 1.0866
 IR Intens:      376.755                188.715                 26.087
 Frequency:      3087.24                3819.79                3820.81
 Force Cnst:      6.1184                 9.1715                 9.1752
 Red. Mass:       1.0895                 1.0669                 1.0667
 IR Intens:       50.365                104.507                202.350

 STANDARD THERMODYNAMIC QUANTITIES AT   298.15 K  AND     1.00 ATM

   This Molecule has  2 Imaginary Frequencies
   Zero point vibrational energy:       50.906 kcal/mol

   Atom    1 Element C  Has Mass   12.00000
   Atom    2 Element O  Has Mass   15.99491
   Atom    3 Element O  Has Mass   15.99491
   Atom    4 Element H  Has Mass    1.00783
   Atom    5 Element H  Has Mass    1.00783
   Atom    6 Element H  Has Mass    1.00783
   Atom    7 Element C  Has Mass   12.00000
   Atom    8 Element H  Has Mass    1.00783
   Atom    9 Element O  Has Mass   15.99491
   Atom   10 Element H  Has Mass    1.00783
   Atom   11 Element O  Has Mass   15.99491
   Atom   12 Element O  Has Mass   15.99491
   Molecular Mass:   109.013700 amu
   Principal axes and moments of inertia in amu*Bohr^2:
                             1           2           3
    Eigenvalues --      369.89212  1092.88008  1184.35997
          X               0.19119    -0.12626     0.97340
          Y               0.51993     0.85416     0.00868
          Z               0.83254    -0.50444    -0.22895
   Rotational Symmetry Number is   1
   The Molecule is an Asymmetric Top
   Translational Enthalpy:        0.889 kcal/mol
   Rotational Enthalpy:           0.889 kcal/mol
   Vibrational Enthalpy:         53.262 kcal/mol
   gas constant (RT):             0.592 kcal/mol
   Translational Entropy:        39.975  cal/mol.K
   Rotational Entropy:           27.662  cal/mol.K
   Vibrational Entropy:          12.890  cal/mol.K

   Total Enthalpy:               55.632 kcal/mol
   Total Entropy:                80.527  cal/mol.K
 Total job time:  3313.39s(wall), 89486.88s(cpu)
        *  Thank you very much for using Q-Chem.  Have a nice day.  *
 Q-Chem 5.4, Q-Chem, Inc., Pleasanton, CA (2021)
 Q-Chem 5.4.1 for Intel X86 EM64T Linux

User input:
--------------------------------------------------------------

$rem
JOBTYPE = ts
SCF_GUESS = read
GEOM_OPT_HESSIAN = read
MAX_SCF_CYCLES = 350
GEOM_OPT_DMAX = 60
GEOM_OPT_MAX_CYCLES = 250
METHOD = wB97M-v
BASIS = 6-311++G(2df,2p)
SCF_CONVERGENCE = 7
THRESH = 12
SCF_ALGORITHM = DIIS_GDM
solvent_method = SMD
$end

$molecule
read
$end
--------------------------------------------------------------

   19    -455.2265878018      6.86e-08  Convergence criterion met
 Total energy in the final basis set =     -455.2220454547
   19    -455.2266413256      7.03e-08  Convergence criterion met
 Total energy in the final basis set =     -455.2221010489
   19    -455.2266852564      7.17e-08  Convergence criterion met
 Total energy in the final basis set =     -455.2221465425
   19    -455.2267189554      7.40e-08  Convergence criterion met
 Total energy in the final basis set =     -455.2221814316
   19    -455.2267422638      7.67e-08  Convergence criterion met
 Total energy in the final basis set =     -455.2222056508
   19    -455.2267552623      8.02e-08  Convergence criterion met
 Total energy in the final basis set =     -455.2222191213

             Standard Nuclear Orientation (Angstroms)
    I     Atom           X                Y                Z
 ----------------------------------------------------------------
    1      C       0.6642922021    -0.0547177182    -2.3665670228
    2      O       0.1304266244    -1.0853847930    -1.5784577202
    3      O       1.2742548623    -0.5408228672    -3.5417681276
    4      H      -0.7411558880    -1.3085706675    -1.9237641629
    5      H       0.5985796815    -0.6251143924    -4.2237176451
    6      H      -0.1018716528     0.6794560493    -2.6172841762
    7      C       1.7877148741     0.6103282194    -1.5909520804
    8      H       2.1918397173     1.4998475857    -2.0795177746
    9      O       2.5355092476    -0.0818580588    -0.8238757351
   10      H       2.0469072535     0.3613948197     0.3221973599
   11      O       0.7898115089     1.5022374482    -0.3526865446
   12      O       1.2778900692     1.0629547747     0.7462767297
 ----------------------------------------------------------------

   19    -455.2267585231      8.74e-08  Convergence criterion met
 Total energy in the final basis set =     -455.2222225219
 Final energy is   -455.222222521875
 **  OPTIMIZATION CONVERGED  **

                    Orbital Energies (a.u.)
 --------------------------------------------------------------

 Alpha MOs
 -- Occupied --
-19.4694 -19.4674 -19.3511 -19.3497 -19.3347 -10.4568 -10.4535  -1.3848
 -1.2114  -1.1730  -1.1416  -1.0042  -0.8516  -0.7371  -0.7101  -0.6637
 -0.6536  -0.6416  -0.6348  -0.5842  -0.5655  -0.5106  -0.4931  -0.4667
 -0.4501  -0.4282  -0.4240  -0.4149  -0.3798

 Beta MOs
 -- Occupied --
-19.4535 -19.4528 -19.3511 -19.3497 -19.3346 -10.4570 -10.4533  -1.3567
 -1.2112  -1.1724  -1.1415  -0.9664  -0.8484  -0.7285  -0.7059  -0.6607
 -0.6465  -0.6162  -0.5990  -0.5687  -0.5393  -0.5104  -0.4925  -0.4614
 -0.4358  -0.4226  -0.4145  -0.3852

          Ground-State Mulliken Net Atomic Charges

     Atom                 Charge (a.u.)    Spin (a.u.)
  --------------------------------------------------------
      1 C                    -0.030143       0.012902
      2 O                    -0.434167      -0.000148
      3 O                    -0.436557       0.000017
      4 H                     0.347305      -0.000080
      5 H                     0.341154      -0.000011
      6 H                     0.259436      -0.000039
      7 C                    -0.108470      -0.026065
      8 H                     0.274478       0.006300
      9 O                    -0.499573       0.001218
     10 H                     0.368127      -0.008733
     11 O                    -0.025704       0.553131
     12 O                    -0.055885       0.461509
  --------------------------------------------------------
  Sum of atomic charges =    -0.000000

                    Cartesian Multipole Moments
 -----------------------------------------------------------------
    Charge (ESU x 10^10)
                 0.0000
    Dipole Moment (Debye)
         X      -4.5655      Y       2.2279      Z      -3.2192
       Tot       6.0142
    Quadrupole Moments (Debye-Ang)
        XX     -48.8055     XY       8.2128     YY     -42.2242
        XZ      10.8401     YZ      -4.0092     ZZ     -26.5346

 Total job time:  2084.59s(wall), 56688.98s(cpu)
        *  Thank you very much for using Q-Chem.  Have a nice day.  *
