 Q-Chem 5.4, Q-Chem, Inc., Pleasanton, CA (2021)
 Q-Chem 5.4.1 for Intel X86 EM64T Linux

User input:
--------------------------------------------------------------
$molecule
0 2
C         0.1530048957   -0.5140473525   -0.4508835185
O        -0.7103897910   -1.3168677804    0.1401348939
H         0.0816042768   -0.3331649070   -1.5144648807
C         1.2924018927   -0.0917889656    0.3112877040
H         1.3092800803   -0.4020378528    1.3647405136
O         2.1850572505    0.6036112494   -0.1718117140
H        -1.4123188410   -1.5819600205   -0.4703542325
O        -0.8572008767    1.3834619275    0.0559111468
O        -1.9218483872    1.0352738021    0.5387925874
$end

$rem
BASIS = 6-311++G(2df,2p)
GUI = 2
JOB_TYPE = Frequency
METHOD = wB97M-V
SOLVENT_METHOD = SMD
SCF_ALGORITHM = DIIS_GDM
MAX_SCF_CYCLES = 400
SCF_CONVERGENCE = 7
THRESH = 12
$end

--------------------------------------------------------------

   27    -378.7632285501      4.27e-08  Convergence criterion met
 Total energy in the final basis set =     -378.7574479835
   21    -378.7632239837      4.68e-08  Convergence criterion met
 Total energy in the final basis set =     -378.7574472723
   21    -378.7632316005      4.46e-08  Convergence criterion met
 Total energy in the final basis set =     -378.7574471999
   21    -378.7632240548      4.74e-08  Convergence criterion met
 Total energy in the final basis set =     -378.7574475663
   21    -378.7632320494      4.63e-08  Convergence criterion met
 Total energy in the final basis set =     -378.7574474250
   21    -378.7632285678      4.62e-08  Convergence criterion met
 Total energy in the final basis set =     -378.7574467349
   21    -378.7632260539      4.66e-08  Convergence criterion met
 Total energy in the final basis set =     -378.7574467607
   21    -378.7632308779      4.69e-08  Convergence criterion met
 Frequency:      -440.01                  99.56                 120.48
 Force Cnst:      1.4013                 0.0560                 0.0863
 Red. Mass:      12.2846                 9.5893                10.0963
 IR Intens:     1602.242                  7.477                  7.851
 Frequency:       187.38                 231.95                 346.35
 Force Cnst:      0.0637                 0.1823                 0.2790
 Red. Mass:       3.0785                 5.7520                 3.9468
 IR Intens:        4.399                 11.520                 37.912
 Frequency:       387.55                 505.70                 589.84
 Force Cnst:      0.6755                 0.1643                 1.6116
 Red. Mass:       7.6334                 1.0903                 7.8621
 IR Intens:        9.395                335.068                 36.968
 Frequency:       816.71                 985.12                1076.26
 Force Cnst:      0.4745                 0.9489                 1.6402
 Red. Mass:       1.2073                 1.6595                 2.4033
 IR Intens:      606.817                106.504                892.716
 Frequency:      1200.18                1270.85                1364.18
 Force Cnst:      1.5278                 2.0255                 1.6902
 Red. Mass:       1.8003                 2.1286                 1.5415
 IR Intens:      835.829                369.032                823.201
 Frequency:      1396.82                1532.03                1666.42
 Force Cnst:      1.9303                 4.9182                10.8489
 Red. Mass:       1.6791                 3.5565                 6.6308
 IR Intens:      959.090                291.556                386.676
 Frequency:      3032.00                3222.76                3783.79
 Force Cnst:      5.8860                 6.6882                 8.9946
 Red. Mass:       1.0867                 1.0930                 1.0663
 IR Intens:       68.834                 17.384                328.807

 STANDARD THERMODYNAMIC QUANTITIES AT   298.15 K  AND     1.00 ATM

   This Molecule has  1 Imaginary Frequencies
   Zero point vibrational energy:       34.047 kcal/mol

   Atom    1 Element C  Has Mass   12.00000
   Atom    2 Element O  Has Mass   15.99491
   Atom    3 Element H  Has Mass    1.00783
   Atom    4 Element C  Has Mass   12.00000
   Atom    5 Element H  Has Mass    1.00783
   Atom    6 Element O  Has Mass   15.99491
   Atom    7 Element H  Has Mass    1.00783
   Atom    8 Element O  Has Mass   15.99491
   Atom    9 Element O  Has Mass   15.99491
   Molecular Mass:    91.003130 amu
   Principal axes and moments of inertia in amu*Bohr^2:
                             1           2           3
    Eigenvalues --      330.56493   693.27173   948.52618
          X               0.98179     0.16101     0.10077
          Y              -0.15336     0.98496    -0.07963
          Z              -0.11208     0.06272     0.99172
   Rotational Symmetry Number is   1
   The Molecule is an Asymmetric Top
   Translational Enthalpy:        0.889 kcal/mol
   Rotational Enthalpy:           0.889 kcal/mol
   Vibrational Enthalpy:         36.425 kcal/mol
   gas constant (RT):             0.592 kcal/mol
   Translational Entropy:        39.437  cal/mol.K
   Rotational Entropy:           26.877  cal/mol.K
   Vibrational Entropy:          14.466  cal/mol.K

   Total Enthalpy:               38.795 kcal/mol
   Total Entropy:                80.780  cal/mol.K
 Total job time:  2374.92s(wall), 36233.21s(cpu)
        *  Thank you very much for using Q-Chem.  Have a nice day.  *
 Q-Chem 5.4, Q-Chem, Inc., Pleasanton, CA (2021)
 Q-Chem 5.4.1 for Intel X86 EM64T Linux

User input:
--------------------------------------------------------------

$molecule
read
$end

$rem
JOBTYPE            rpath
SCF_GUESS          read
RPATH_MAX_CYCLES   30
BASIS = 6-311++G(2df,2p)
METHOD = wB97M-V
SOLVENT_METHOD = SMD
SCF_ALGORITHM = DIIS_GDM
SCF_CONVERGENCE = 7
THRESH = 12
$end
--------------------------------------------------------------

 Total energy in the final basis set =     -378.7844115182
   19    -378.7908856618      4.01e-08  Convergence criterion met
 Total energy in the final basis set =     -378.7854005505
   19    -378.7906838296      5.48e-08  Convergence criterion met
 Total energy in the final basis set =     -378.7852553206
   20    -378.7909168442      5.18e-08  Convergence criterion met
 Total energy in the final basis set =     -378.7854503069
   20    -378.7887624309      3.15e-08  Convergence criterion met
 Total energy in the final basis set =     -378.7836172266
   18    -378.7909446792      7.67e-08  Convergence criterion met
 Total energy in the final basis set =     -378.7855295679
   19    -378.7909719275      7.24e-08  Convergence criterion met
 Total energy in the final basis set =     -378.7854869012
   19    -378.7909951558      8.86e-08  Convergence criterion met
 Total energy in the final basis set =     -378.7855535262

                    Orbital Energies (a.u.)
 --------------------------------------------------------------

 Alpha MOs
 -- Occupied --
-19.4668 -19.4201 -19.3781 -19.3645 -10.4709 -10.4562  -1.3513  -1.2175
 -1.2052  -1.0103  -0.8459  -0.7296  -0.6858  -0.6628  -0.6407  -0.6055
 -0.5866  -0.5751  -0.5258  -0.4993  -0.4598  -0.4165  -0.4004  -0.3769

 Beta MOs
 -- Occupied --
-19.4559 -19.4015 -19.3781 -19.3644 -10.4713 -10.4560  -1.3253  -1.2163
 -1.2047  -0.9799  -0.8353  -0.7237  -0.6822  -0.6511  -0.6240  -0.5888
 -0.5716  -0.5402  -0.5148  -0.4917  -0.4545  -0.3995  -0.3775

          Ground-State Mulliken Net Atomic Charges

     Atom                 Charge (a.u.)    Spin (a.u.)
  --------------------------------------------------------
      1 C                    -0.090374      -0.011014
      2 O                    -0.343566      -0.004313
      3 H                     0.258666       0.009897
      4 C                     0.155669       0.007727
      5 H                     0.218250       0.001860
      6 O                    -0.359163       0.005784
      7 H                     0.360969       0.000013
      8 O                     0.020413       0.327023
      9 O                    -0.220865       0.663024
  --------------------------------------------------------
  Sum of atomic charges =     0.000000

                    Cartesian Multipole Moments
 -----------------------------------------------------------------
    Charge (ESU x 10^10)
                 0.0000
    Dipole Moment (Debye)
         X      -1.0268      Y      -3.7944      Z      -1.7428
       Tot       4.2999
    Quadrupole Moments (Debye-Ang)
        XX     -42.5278     XY       1.5388     YY     -36.2367
        XZ       5.9539     YZ       2.4120     ZZ     -30.9281

             Standard Nuclear Orientation (Angstroms)
    I     Atom           X                Y                Z
 ----------------------------------------------------------------
    1      C       0.1530048957    -0.5140473525    -0.4508835185
    2      O      -0.7103897910    -1.3168677804     0.1401348939
    3      H       0.0816042768    -0.3331649070    -1.5144648807
    4      C       1.2924018927    -0.0917889656     0.3112877040
    5      H       1.3092800803    -0.4020378528     1.3647405136
    6      O       2.1850572505     0.6036112494    -0.1718117140
    7      H      -1.4123188410    -1.5819600205    -0.4703542325
    8      O      -0.8572008767     1.3834619275     0.0559111468
    9      O      -1.9218483872     1.0352738021     0.5387925874
 ----------------------------------------------------------------

 Total job time:  2718.10s(wall), 41471.23s(cpu)
        *  Thank you very much for using Q-Chem.  Have a nice day.  *
