 Q-Chem 5.4, Q-Chem, Inc., Pleasanton, CA (2021)
 Q-Chem 5.4.1 for Intel X86 EM64T Linux

User input:
--------------------------------------------------------------
$molecule
0 2
C   -0.0467819   -0.2844205   -0.2067773
O   -0.6322274   -1.3670698    0.4157195
H   -0.0518470   -0.3592164   -1.2954774
C    1.3751126   -0.1262203    0.3010104
H    1.8949622   -1.0730899    0.5015316
O    1.8977899    0.9480380    0.4463101
H   -1.3651886   -1.6875296   -0.1236876
O   -0.9037600    1.3341182    0.1931480
O   -2.0484693    1.3978704   -0.4284248
$end

$rem
BASIS = 6-311++G(2df,2p)
GUI = 2
JOB_TYPE = Frequency
METHOD = wB97M-V
SCF_ALGORITHM = DIIS_GDM
MAX_SCF_CYCLES = 400
SCF_CONVERGENCE = 6
THRESH = 11
solvent_method = SMD
$end

--------------------------------------------------------------

   20    -378.7597193037      6.39e-07  Convergence criterion met
 Total energy in the final basis set =     -378.7543661116
   19    -378.7596921778      9.42e-07  Convergence criterion met
 Total energy in the final basis set =     -378.7543441528
   20    -378.7597448555      4.89e-07  Convergence criterion met
 Total energy in the final basis set =     -378.7543865000
   20    -378.7596979174      3.55e-07  Convergence criterion met
 Total energy in the final basis set =     -378.7543530869
   20    -378.7597398776      3.79e-07  Convergence criterion met
 Total energy in the final basis set =     -378.7543783298
   19    -378.7597573943      9.97e-07  Convergence criterion met
 Total energy in the final basis set =     -378.7544001036
   20    -378.7596791816      3.82e-07  Convergence criterion met
 Total energy in the final basis set =     -378.7543300888
   20    -378.7597337122      4.75e-07  Convergence criterion met
 Frequency:      -204.04                  74.84                 150.60
 Force Cnst:      0.2204                 0.0091                 0.1647
 Red. Mass:       8.9872                 2.7708                12.3210
 IR Intens:      179.040                 23.641                  2.588
 Frequency:       204.15                 334.34                 402.30
 Force Cnst:      0.2715                 0.3602                 0.1597
 Red. Mass:      11.0554                 5.4699                 1.6746
 IR Intens:       13.615                 34.661                112.647
 Frequency:       436.76                 494.52                 640.20
 Force Cnst:      0.6997                 0.2966                 1.1737
 Red. Mass:       6.2258                 2.0586                 4.8606
 IR Intens:       27.728                149.022                 23.292
 Frequency:       869.13                1003.30                1039.19
 Force Cnst:      0.7832                 1.6908                 1.4685
 Red. Mass:       1.7597                 2.8508                 2.3081
 IR Intens:       19.149                490.085                 11.666
 Frequency:      1178.05                1192.61                1224.24
 Force Cnst:      1.4042                 9.2221                 0.9978
 Red. Mass:       1.7173                11.0050                 1.1300
 IR Intens:       72.934                 65.980                 74.847
 Frequency:      1371.23                1442.28                1796.32
 Force Cnst:      1.2945                 1.9709                20.5264
 Red. Mass:       1.1685                 1.6081                10.7968
 IR Intens:       55.519                 15.360                303.092
 Frequency:      3034.47                3122.00                3815.87
 Force Cnst:      5.9083                 6.2480                 9.1506
 Red. Mass:       1.0890                 1.0880                 1.0666
 IR Intens:       40.935                  8.678                247.569

 STANDARD THERMODYNAMIC QUANTITIES AT   298.15 K  AND     1.00 ATM

   This Molecule has  1 Imaginary Frequencies
   Zero point vibrational energy:       34.062 kcal/mol

   Atom    1 Element C  Has Mass   12.00000
   Atom    2 Element O  Has Mass   15.99491
   Atom    3 Element H  Has Mass    1.00783
   Atom    4 Element C  Has Mass   12.00000
   Atom    5 Element H  Has Mass    1.00783
   Atom    6 Element O  Has Mass   15.99491
   Atom    7 Element H  Has Mass    1.00783
   Atom    8 Element O  Has Mass   15.99491
   Atom    9 Element O  Has Mass   15.99491
   Molecular Mass:    91.003130 amu
   Principal axes and moments of inertia in amu*Bohr^2:
                             1           2           3
    Eigenvalues --      361.21221   673.49820   987.87984
          X               0.94916     0.27223    -0.15807
          Y              -0.26303     0.96172     0.07692
          Z               0.17296    -0.03144     0.98443
   Rotational Symmetry Number is   1
   The Molecule is an Asymmetric Top
   Translational Enthalpy:        0.889 kcal/mol
   Rotational Enthalpy:           0.889 kcal/mol
   Vibrational Enthalpy:         36.261 kcal/mol
   gas constant (RT):             0.592 kcal/mol
   Translational Entropy:        39.437  cal/mol.K
   Rotational Entropy:           26.977  cal/mol.K
   Vibrational Entropy:          13.363  cal/mol.K

   Total Enthalpy:               38.631 kcal/mol
   Total Entropy:                79.777  cal/mol.K
 Total job time:  5632.39s(wall), 30266.85s(cpu)
        *  Thank you very much for using Q-Chem.  Have a nice day.  *
 Q-Chem 5.4, Q-Chem, Inc., Pleasanton, CA (2021)
 Q-Chem 5.4.1 for Intel X86 EM64T Linux

User input:
--------------------------------------------------------------

$rem
JOBTYPE = ts
SCF_GUESS = read
GEOM_OPT_HESSIAN = read
MAX_SCF_CYCLES = 350
GEOM_OPT_DMAX = 60
GEOM_OPT_MAX_CYCLES = 250
METHOD = wB97M-v
BASIS = 6-311++G(2df,2p)
SCF_CONVERGENCE = 7
THRESH = 12
SCF_ALGORITHM = DIIS_GDM
solvent_method = SMD
$end

$molecule
read
$end
--------------------------------------------------------------

   21    -378.7629893285      9.60e-08  Convergence criterion met
 Total energy in the final basis set =     -378.7571927903
   21    -378.7630741131      9.35e-08  Convergence criterion met
 Total energy in the final basis set =     -378.7572806372
   21    -378.7631403664      9.14e-08  Convergence criterion met
 Total energy in the final basis set =     -378.7573496831
   21    -378.7631878322      8.97e-08  Convergence criterion met
 Total energy in the final basis set =     -378.7573999197
   21    -378.7632171337      8.75e-08  Convergence criterion met
 Total energy in the final basis set =     -378.7574322539
   21    -378.7632286211      8.44e-08  Convergence criterion met
 Total energy in the final basis set =     -378.7574470046

             Standard Nuclear Orientation (Angstroms)
    I     Atom           X                Y                Z
 ----------------------------------------------------------------
    1      C       0.1530048957    -0.5140473525    -0.4508835185
    2      O      -0.7103897910    -1.3168677804     0.1401348939
    3      H       0.0816042768    -0.3331649070    -1.5144648807
    4      C       1.2924018927    -0.0917889656     0.3112877040
    5      H       1.3092800803    -0.4020378528     1.3647405136
    6      O       2.1850572505     0.6036112494    -0.1718117140
    7      H      -1.4123188410    -1.5819600205    -0.4703542325
    8      O      -0.8572008767     1.3834619275     0.0559111468
    9      O      -1.9218483872     1.0352738021     0.5387925874
 ----------------------------------------------------------------

   21    -378.7632285503      5.63e-08  Convergence criterion met
 Total energy in the final basis set =     -378.7574479836
 Final energy is   -378.757447983632
 **  OPTIMIZATION CONVERGED  **

                    Orbital Energies (a.u.)
 --------------------------------------------------------------

 Alpha MOs
 -- Occupied --
-19.4751 -19.4553 -19.4007 -19.3358 -10.4351 -10.4348  -1.4026  -1.2311
 -1.1743  -0.9487  -0.8592  -0.7082  -0.6888  -0.6568  -0.6500  -0.6402
 -0.6035  -0.5568  -0.5228  -0.4979  -0.4785  -0.3960  -0.3911  -0.3782

 Beta MOs
 -- Occupied --
-19.4488 -19.4296 -19.4040 -19.3410 -10.4414 -10.4347  -1.3541  -1.2386
 -1.1829  -0.8914  -0.8583  -0.7125  -0.6932  -0.6195  -0.6089  -0.5921
 -0.5625  -0.5511  -0.5231  -0.5056  -0.4987  -0.3873  -0.3009

          Ground-State Mulliken Net Atomic Charges

     Atom                 Charge (a.u.)    Spin (a.u.)
  --------------------------------------------------------
      1 C                    -0.146766      -0.426799
      2 O                    -0.232551      -0.096792
      3 H                     0.285764       0.012488
      4 C                     0.052647      -0.025888
      5 H                     0.208546       0.002614
      6 O                    -0.449879      -0.179789
      7 H                     0.370533       0.000911
      8 O                    -0.010004       0.853164
      9 O                    -0.078290       0.860091
  --------------------------------------------------------
  Sum of atomic charges =     0.000000

                    Cartesian Multipole Moments
 -----------------------------------------------------------------
    Charge (ESU x 10^10)
                 0.0000
    Dipole Moment (Debye)
         X      -3.6796      Y      -4.2008      Z      -1.5764
       Tot       5.8027
    Quadrupole Moments (Debye-Ang)
        XX     -43.0909     XY      -0.0340     YY     -34.4847
        XZ       5.3892     YZ       2.7587     ZZ     -30.9766

 Total job time:  4947.33s(wall), 38442.52s(cpu)
        *  Thank you very much for using Q-Chem.  Have a nice day.  *
