 Q-Chem 5.4, Q-Chem, Inc., Pleasanton, CA (2021)
 Q-Chem 5.4.1 for Intel X86 EM64T Linux

User input:
--------------------------------------------------------------
$molecule
0 2
C         2.4196112003   -1.3061530448   -1.0867200633
O         1.1903737258   -0.8288117290   -0.5934761840
C         3.4679562378   -0.9388076576   -0.0795122985
O         3.3240780018   -1.5264875999    1.1307728006
C         3.5689159835    1.8819989592    0.8016166267
O         4.7803024060    1.8182785698    0.7381916420
H         2.6681364376   -0.8548729275   -2.0448589534
H         0.5294967762   -0.9451740963   -1.2860953449
H         3.0557622516    1.9441114345    1.7690151597
H         2.9477171454    1.9007736918   -0.1022263982
O         2.3725692119   -2.6996992367   -1.3261195126
H         2.2311704398   -3.1483227431   -0.4821533098
O         4.7879529978   -0.9675091522   -0.4916919489
O         5.0017857824    0.0845736790   -1.4419952845
H         4.0487923493   -1.2543398414    1.7119538476
H         5.1258949938    0.8548507606   -0.8499567782
$end

$rem
BASIS = 6-311++G(2df,2p)
GUI = 2
JOB_TYPE = Frequency
METHOD = wB97M-V
SOLVENT_METHOD = SMD
SCF_ALGORITHM = DIIS_GDM
MAX_SCF_CYCLES = 400
SCF_CONVERGENCE = 7
THRESH = 12
$end

--------------------------------------------------------------

   19    -569.7534402596      5.82e-08  Convergence criterion met
 Total energy in the final basis set =     -569.7445884742
   17    -569.7534355420      4.73e-08  Convergence criterion met
 Total energy in the final basis set =     -569.7445873508
   17    -569.7534431970      4.61e-08  Convergence criterion met
 Total energy in the final basis set =     -569.7445874727
   17    -569.7534398640      4.71e-08  Convergence criterion met
 Total energy in the final basis set =     -569.7445875357
   17    -569.7534391719      4.70e-08  Convergence criterion met
 Total energy in the final basis set =     -569.7445875236
   17    -569.7534393678      4.68e-08  Convergence criterion met
 Total energy in the final basis set =     -569.7445872076
   17    -569.7534388629      4.67e-08  Convergence criterion met
 Total energy in the final basis set =     -569.7445873825
   17    -569.7534432721      4.71e-08  Convergence criterion met
 Frequency:       -92.33                  36.52                  41.05
 Force Cnst:      0.0116                 0.0043                 0.0070
 Red. Mass:       2.3027                 5.4182                 7.0879
 IR Intens:       50.226                  0.731                  0.504
 Frequency:        71.17                  99.99                 131.43
 Force Cnst:      0.0141                 0.0266                 0.0699
 Red. Mass:       4.7142                 4.5163                 6.8676
 IR Intens:        9.357                 14.807                 36.942
 Frequency:       165.14                 211.59                 232.24
 Force Cnst:      0.0659                 0.1132                 0.1014
 Red. Mass:       4.0994                 4.2910                 3.1919
 IR Intens:       18.025                  1.400                  9.088
 Frequency:       257.24                 290.08                 297.57
 Force Cnst:      0.0703                 0.0716                 0.1234
 Red. Mass:       1.8028                 1.4449                 2.3652
 IR Intens:        3.564                146.135                133.755
 Frequency:       339.21                 369.26                 498.29
 Force Cnst:      0.0815                 0.0966                 0.9423
 Red. Mass:       1.2022                 1.2019                 6.4413
 IR Intens:      251.149                122.166                 43.428
 Frequency:       507.74                 585.10                 613.54
 Force Cnst:      0.8545                 0.3038                 0.5806
 Red. Mass:       5.6261                 1.5064                 2.6177
 IR Intens:       44.007                237.249                 47.163
 Frequency:       701.53                 836.92                 992.02
 Force Cnst:      1.4480                 1.7633                 7.3740
 Red. Mass:       4.9936                 4.2726                12.7180
 IR Intens:       77.364                 71.288                  8.587
 Frequency:      1092.81                1146.90                1178.45
 Force Cnst:      2.2891                 2.0107                 1.3364
 Red. Mass:       3.2533                 2.5944                 1.6333
 IR Intens:      101.031                208.803                333.567
 Frequency:      1213.34                1253.54                1257.74
 Force Cnst:      1.1651                 1.8379                 1.2536
 Red. Mass:       1.3433                 1.9851                 1.3450
 IR Intens:        4.293                276.126                 43.317
 Frequency:      1267.33                1314.25                1365.15
 Force Cnst:      1.9216                 1.8901                 1.9793
 Red. Mass:       2.0307                 1.8572                 1.8026
 IR Intens:      178.123                162.978                 22.863
 Frequency:      1422.45                1463.94                1494.21
 Force Cnst:      1.5110                 1.4002                 2.8078
 Red. Mass:       1.2675                 1.1089                 2.1345
 IR Intens:       86.493                 90.110                 46.409
 Frequency:      1509.71                1750.98                2995.35
 Force Cnst:      1.5456                11.0117                 5.5354
 Red. Mass:       1.1510                 6.0960                 1.0471
 IR Intens:       48.923                220.749                 57.954
 Frequency:      3089.59                3126.80                3533.49
 Force Cnst:      6.3110                 6.2662                 7.8696
 Red. Mass:       1.1221                 1.0878                 1.0698
 IR Intens:       58.881                 22.086                549.376
 Frequency:      3771.01                3791.64                3820.18
 Force Cnst:      8.9288                 9.0302                 9.1702
 Red. Mass:       1.0657                 1.0661                 1.0665
 IR Intens:      218.674                125.778                137.442

 STANDARD THERMODYNAMIC QUANTITIES AT   298.15 K  AND     1.00 ATM

   This Molecule has  1 Imaginary Frequencies
   Zero point vibrational energy:       71.674 kcal/mol

   Atom    1 Element C  Has Mass   12.00000
   Atom    2 Element O  Has Mass   15.99491
   Atom    3 Element C  Has Mass   12.00000
   Atom    4 Element O  Has Mass   15.99491
   Atom    5 Element C  Has Mass   12.00000
   Atom    6 Element O  Has Mass   15.99491
   Atom    7 Element H  Has Mass    1.00783
   Atom    8 Element H  Has Mass    1.00783
   Atom    9 Element H  Has Mass    1.00783
   Atom   10 Element H  Has Mass    1.00783
   Atom   11 Element O  Has Mass   15.99491
   Atom   12 Element H  Has Mass    1.00783
   Atom   13 Element O  Has Mass   15.99491
   Atom   14 Element O  Has Mass   15.99491
   Atom   15 Element H  Has Mass    1.00783
   Atom   16 Element H  Has Mass    1.00783
   Molecular Mass:   139.024270 amu
   Principal axes and moments of inertia in amu*Bohr^2:
                             1           2           3
    Eigenvalues --      811.40981  1764.88153  1985.79724
          X               0.55649     0.79008     0.25708
          Y               0.77752    -0.38614    -0.49635
          Z               0.29289    -0.47610     0.82919
   Rotational Symmetry Number is   1
   The Molecule is an Asymmetric Top
   Translational Enthalpy:        0.889 kcal/mol
   Rotational Enthalpy:           0.889 kcal/mol
   Vibrational Enthalpy:         77.186 kcal/mol
   gas constant (RT):             0.592 kcal/mol
   Translational Entropy:        40.700  cal/mol.K
   Rotational Entropy:           29.432  cal/mol.K
   Vibrational Entropy:          37.597  cal/mol.K

   Total Enthalpy:               79.556 kcal/mol
   Total Entropy:               107.729  cal/mol.K
 Total job time:  12592.84s(wall), 177344.31s(cpu)
        *  Thank you very much for using Q-Chem.  Have a nice day.  *
 Q-Chem 5.4, Q-Chem, Inc., Pleasanton, CA (2021)
 Q-Chem 5.4.1 for Intel X86 EM64T Linux

User input:
--------------------------------------------------------------

$molecule
read
$end

$rem
JOBTYPE            rpath
SCF_GUESS          read
RPATH_MAX_CYCLES   30
BASIS = 6-311++G(2df,2p)
METHOD = wB97M-V
SOLVENT_METHOD = SMD
SCF_ALGORITHM = DIIS_GDM
SCF_CONVERGENCE = 7
THRESH = 12
$end
--------------------------------------------------------------

 Total energy in the final basis set =     -569.7445884739
   17    -569.7533861346      5.28e-08  Convergence criterion met
 Total energy in the final basis set =     -569.7446006663
   17    -569.7515333649      4.49e-08  Convergence criterion met
 Total energy in the final basis set =     -569.7426380261
   17    -569.7533877666      3.51e-08  Convergence criterion met
 Total energy in the final basis set =     -569.7446009718
   19    -569.7450506916      4.22e-08  Convergence criterion met
 Total energy in the final basis set =     -569.7364550506
   16    -569.7533872433      9.72e-08  Convergence criterion met
 Total energy in the final basis set =     -569.7446011258
   17    -569.7533878502      5.01e-08  Convergence criterion met
 Total energy in the final basis set =     -569.7446011023
   17    -569.7533875456      5.00e-08  Convergence criterion met
 Total energy in the final basis set =     -569.7446011568

                    Orbital Energies (a.u.)
 --------------------------------------------------------------

 Alpha MOs
 -- Occupied --
-19.4249 -19.3995 -19.3818 -19.3583 -19.3496 -19.3493 -10.4551 -10.4538
-10.4421  -1.2924  -1.2188  -1.1997  -1.1970  -1.1380  -1.0542  -0.8583
 -0.7527  -0.7499  -0.7030  -0.6634  -0.6491  -0.6131  -0.6060  -0.5859
 -0.5788  -0.5691  -0.5517  -0.5357  -0.5154  -0.4973  -0.4654  -0.4473
 -0.4387  -0.4204  -0.4111  -0.3844  -0.2837

 Beta MOs
 -- Occupied --
-19.4225 -19.3989 -19.3783 -19.3574 -19.3494 -19.3480 -10.4547 -10.4422
-10.4411  -1.2867  -1.2135  -1.1982  -1.1925  -1.1362  -1.0493  -0.8473
 -0.7515  -0.7423  -0.6970  -0.6586  -0.6435  -0.6111  -0.5899  -0.5818
 -0.5738  -0.5667  -0.5471  -0.5303  -0.5110  -0.4779  -0.4592  -0.4359
 -0.4343  -0.4166  -0.4071  -0.3830

          Ground-State Mulliken Net Atomic Charges

     Atom                 Charge (a.u.)    Spin (a.u.)
  --------------------------------------------------------
      1 C                    -0.008969      -0.034182
      2 O                    -0.412671       0.004816
      3 C                    -0.081973       0.826929
      4 O                    -0.328770       0.096620
      5 C                    -0.047508      -0.008138
      6 O                    -0.305826       0.026065
      7 H                     0.279991       0.000108
      8 H                     0.339548      -0.000617
      9 H                     0.183827       0.001509
     10 H                     0.216623      -0.000275
     11 O                    -0.433474       0.034608
     12 H                     0.343678      -0.000597
     13 O                    -0.124201       0.037787
     14 O                    -0.310525       0.008063
     15 H                     0.354777      -0.000592
     16 H                     0.335473       0.007897
  --------------------------------------------------------
  Sum of atomic charges =     0.000000

                    Cartesian Multipole Moments
 -----------------------------------------------------------------
    Charge (ESU x 10^10)
                 0.0000
    Dipole Moment (Debye)
         X      -3.2720      Y       2.3445      Z       2.0546
       Tot       4.5193
    Quadrupole Moments (Debye-Ang)
        XX     -78.5181     XY       5.8887     YY     -53.2533
        XZ      13.5625     YZ      -5.3160     ZZ     -51.3663

             Standard Nuclear Orientation (Angstroms)
    I     Atom           X                Y                Z
 ----------------------------------------------------------------
    1      C       2.4196112003    -1.3061530448    -1.0867200633
    2      O       1.1903737258    -0.8288117290    -0.5934761840
    3      C       3.4679562378    -0.9388076576    -0.0795122985
    4      O       3.3240780018    -1.5264875999     1.1307728006
    5      C       3.5689159835     1.8819989592     0.8016166267
    6      O       4.7803024060     1.8182785698     0.7381916420
    7      H       2.6681364376    -0.8548729275    -2.0448589534
    8      H       0.5294967762    -0.9451740963    -1.2860953449
    9      H       3.0557622516     1.9441114345     1.7690151597
   10      H       2.9477171454     1.9007736918    -0.1022263982
   11      O       2.3725692119    -2.6996992367    -1.3261195126
   12      H       2.2311704398    -3.1483227431    -0.4821533098
   13      O       4.7879529978    -0.9675091522    -0.4916919489
   14      O       5.0017857824     0.0845736790    -1.4419952845
   15      H       4.0487923493    -1.2543398414     1.7119538476
   16      H       5.1258949938     0.8548507606    -0.8499567782
 ----------------------------------------------------------------

 Total job time:  2122.54s(wall), 29875.24s(cpu)
        *  Thank you very much for using Q-Chem.  Have a nice day.  *
