 Q-Chem 5.4, Q-Chem, Inc., Pleasanton, CA (2021)
 Q-Chem 5.4.1 for Intel X86 EM64T Linux

User input:
--------------------------------------------------------------
$molecule
0 1
C        -0.0270514469   -0.9795995562    0.0547995429
C        -0.4367339004   -2.0698142073    0.8085553590
C        -1.7512713365   -2.1547858010    1.2523236112
C        -2.6477454249   -1.1443924481    0.9337321869
C        -2.2373519681   -0.0560062523    0.1725875943
C        -0.9235485484    0.0345127281   -0.2732645737
C        -0.4526056524    1.1888949991   -1.1245696326
H         1.0012350658   -0.9095398510   -0.2800353330
H         0.2715451361   -2.8488622124    1.0574115294
H        -2.0717185319   -2.9999029342    1.8465516996
H        -3.6721949764   -1.2019396686    1.2776197602
H        -2.9430750084    0.7263847010   -0.0716503339
H         0.5928751457    1.4055855179   -0.8942691968
O        -1.2456580274    2.3628375436   -0.9921630272
H        -0.5040465940    0.9137838820   -2.1784314727
H        -1.1948545320    2.6579219591   -0.0762993136
$end

$rem
BASIS = 6-311++G(2df,2p)
GUI = 2
JOB_TYPE = Frequency
METHOD = wB97M-V
SOLVENT_METHOD = SMD
SCF_ALGORITHM = DIIS_GDM
MAX_SCF_CYCLES = 400
SCF_CONVERGENCE = 7
THRESH = 12
SYMMETRY_IGNORE = 1
$end
--------------------------------------------------------------

   14    -346.7577489493      4.81e-08  Convergence criterion met
 Total energy in the final basis set =     -346.7525255213
   12    -346.7577481641      7.45e-08  Convergence criterion met
 Total energy in the final basis set =     -346.7525241766
   12    -346.7577472569      6.09e-08  Convergence criterion met
 Total energy in the final basis set =     -346.7525243840
   12    -346.7577482870      7.01e-08  Convergence criterion met
 Total energy in the final basis set =     -346.7525246076
   12    -346.7577476622      8.90e-08  Convergence criterion met
 Total energy in the final basis set =     -346.7525244824
   12    -346.7577482112      6.30e-08  Convergence criterion met
 Total energy in the final basis set =     -346.7525250353
   12    -346.7577485877      7.55e-08  Convergence criterion met
 Total energy in the final basis set =     -346.7525249058
   12    -346.7577483139      8.16e-08  Convergence criterion met
 Total energy in the final basis set =     -346.7525249864
   12    -346.7577485445      6.81e-08  Convergence criterion met
 Total energy in the final basis set =     -346.7525249159
   12    -346.7577488300      7.15e-08  Convergence criterion met
 Total energy in the final basis set =     -346.7525255708
   12    -346.7577489900      6.99e-08  Convergence criterion met
 Total energy in the final basis set =     -346.7525253932
   12    -346.7577496322      7.02e-08  Convergence criterion met
 Total energy in the final basis set =     -346.7525253069
   12    -346.7577479584      7.03e-08  Convergence criterion met
 Total energy in the final basis set =     -346.7525254275
   12    -346.7577484104      6.99e-08  Convergence criterion met
 Total energy in the final basis set =     -346.7525245677
   12    -346.7577478001      7.05e-08  Convergence criterion met
 Total energy in the final basis set =     -346.7525247868

                    Orbital Energies (a.u.)
 --------------------------------------------------------------

 Alpha MOs
 -- Occupied --
-19.3371 -10.3858 -10.3509 -10.3423 -10.3421 -10.3407 -10.3398 -10.3398
 -1.1560  -0.9856  -0.8886  -0.8679  -0.7958  -0.7197  -0.7009  -0.6365
 -0.6054  -0.5674  -0.5543  -0.5420  -0.5259  -0.5165  -0.4821  -0.4638
 -0.4386  -0.4288  -0.3936  -0.3460  -0.3354

          Ground-State Mulliken Net Atomic Charges

     Atom                 Charge (a.u.)
  ----------------------------------------
      1 C                    -0.503594
      2 C                    -0.351175
      3 C                    -0.374678
      4 C                    -0.377217
      5 C                    -0.168863
      6 C                     0.499394
      7 C                    -0.390527
      8 H                     0.271298
      9 H                     0.282469
     10 H                     0.276379
     11 H                     0.282625
     12 H                     0.268968
     13 H                     0.216447
     14 O                    -0.435582
     15 H                     0.175106
     16 H                     0.328951
  ----------------------------------------
  Sum of atomic charges =     0.000000

                    Cartesian Multipole Moments
 -----------------------------------------------------------------
    Charge (ESU x 10^10)
                -0.0000
    Dipole Moment (Debye)
         X       1.2745      Y      -0.8244      Z       1.4820
       Tot       2.1214
    Quadrupole Moments (Debye-Ang)
        XX     -46.2707     XY       1.6986     YY     -48.6983
        XZ      -4.9718     YZ       2.3484     ZZ     -50.5077

             Standard Nuclear Orientation (Angstroms)
    I     Atom           X                Y                Z
 ----------------------------------------------------------------
    1      C      -0.0270514469    -0.9795995562     0.0547995429
    2      C      -0.4367339004    -2.0698142073     0.8085553590
    3      C      -1.7512713365    -2.1547858010     1.2523236112
    4      C      -2.6477454249    -1.1443924481     0.9337321869
    5      C      -2.2373519681    -0.0560062523     0.1725875943
    6      C      -0.9235485484     0.0345127281    -0.2732645737
    7      C      -0.4526056524     1.1888949991    -1.1245696326
    8      H       1.0012350658    -0.9095398510    -0.2800353330
    9      H       0.2715451361    -2.8488622124     1.0574115294
   10      H      -2.0717185319    -2.9999029342     1.8465516996
   11      H      -3.6721949764    -1.2019396686     1.2776197602
   12      H      -2.9430750084     0.7263847010    -0.0716503339
   13      H       0.5928751457     1.4055855179    -0.8942691968
   14      O      -1.2456580274     2.3628375436    -0.9921630272
   15      H      -0.5040465940     0.9137838820    -2.1784314727
   16      H      -1.1948545320     2.6579219591    -0.0762993136
 ----------------------------------------------------------------

 Frequency:       -32.33                 164.57                 238.76
 Force Cnst:      0.0016                 0.0389                 0.1283
 Red. Mass:       2.5598                 2.4378                 3.8199
 IR Intens:        6.320                 19.219                  4.489
 Frequency:       266.69                 413.20                 414.07
 Force Cnst:      0.0553                 0.3644                 0.3481
 Red. Mass:       1.3190                 3.6224                 3.4460
 IR Intens:      223.469                 11.162                  9.017
 Frequency:       471.71                 596.67                 626.39
 Force Cnst:      0.3830                 1.0191                 1.4760
 Red. Mass:       2.9215                 4.8585                 6.3850
 IR Intens:       19.806                 16.121                  0.261
 Frequency:       719.29                 753.41                 812.13
 Force Cnst:      0.6311                 0.4999                 1.5470
 Red. Mass:       2.0703                 1.4946                 3.9810
 IR Intens:       56.524                114.358                  8.080
 Frequency:       876.10                 930.05                 997.45
 Force Cnst:      0.5663                 0.6747                 0.9378
 Red. Mass:       1.2523                 1.3239                 1.5998
 IR Intens:        0.039                 11.681                 36.348
 Frequency:      1015.30                1017.36                1035.42
 Force Cnst:      0.8899                 2.8893                 0.8383
 Red. Mass:       1.4653                 4.7380                 1.3271
 IR Intens:        0.140                  1.928                  0.381
 Frequency:      1051.93                1070.37                1106.17
 Force Cnst:      1.6887                 2.3302                 1.1476
 Red. Mass:       2.5901                 3.4520                 1.5918
 IR Intens:       57.718                127.629                  7.256
 Frequency:      1158.93                1185.34                1212.84
 Force Cnst:      0.9008                 0.9219                 0.9749
 Red. Mass:       1.1383                 1.1136                 1.1249
 IR Intens:        0.346                  0.426                 22.892
 Frequency:      1232.06                1302.24                1340.79
 Force Cnst:      2.4853                 3.9612                 1.5920
 Red. Mass:       2.7788                 3.9646                 1.5031
 IR Intens:       16.481                  3.264                  0.922
 Frequency:      1382.50                1413.85                1477.12
 Force Cnst:      1.3516                 1.5852                 1.3954
 Red. Mass:       1.2003                 1.3460                 1.0855
 IR Intens:       22.174                 72.198                 11.943
 Frequency:      1488.16                1534.71                1654.79
 Force Cnst:      2.9114                 3.3327                 9.9136
 Red. Mass:       2.2313                 2.4015                 6.1446
 IR Intens:       15.353                 13.944                  0.414
 Frequency:      1674.68                3051.28                3098.79
 Force Cnst:     10.1401                 5.8272                 6.2361
 Red. Mass:       6.1366                 1.0623                 1.1022
 IR Intens:        7.549                 62.159                 26.606
 Frequency:      3175.19                3185.82                3195.27
 Force Cnst:      6.4653                 6.5001                 6.5647
 Red. Mass:       1.0884                 1.0870                 1.0913
 IR Intens:       11.995                  0.070                 19.349
 Frequency:      3204.01                3211.20                3822.01
 Force Cnst:      6.6158                 6.6733                 9.1787
 Red. Mass:       1.0938                 1.0984                 1.0665
 IR Intens:       32.920                 15.884                 98.926

 STANDARD THERMODYNAMIC QUANTITIES AT   298.15 K  AND     1.00 ATM

   This Molecule has  1 Imaginary Frequencies
   Zero point vibrational energy:       83.742 kcal/mol

   Atom    1 Element C  Has Mass   12.00000
   Atom    2 Element C  Has Mass   12.00000
   Atom    3 Element C  Has Mass   12.00000
   Atom    4 Element C  Has Mass   12.00000
   Atom    5 Element C  Has Mass   12.00000
   Atom    6 Element C  Has Mass   12.00000
   Atom    7 Element C  Has Mass   12.00000
   Atom    8 Element H  Has Mass    1.00783
   Atom    9 Element H  Has Mass    1.00783
   Atom   10 Element H  Has Mass    1.00783
   Atom   11 Element H  Has Mass    1.00783
   Atom   12 Element H  Has Mass    1.00783
   Atom   13 Element H  Has Mass    1.00783
   Atom   14 Element O  Has Mass   15.99491
   Atom   15 Element H  Has Mass    1.00783
   Atom   16 Element H  Has Mass    1.00783
   Molecular Mass:   108.057550 amu
   Principal axes and moments of inertia in amu*Bohr^2:
                             1           2           3
    Eigenvalues --      366.77599  1215.42514  1550.13720
          X               0.11326     0.95176     0.28518
          Y               0.87660    -0.23083     0.42225
          Z              -0.46771    -0.20216     0.86045
   Rotational Symmetry Number is   1
   The Molecule is an Asymmetric Top
   Translational Enthalpy:        0.889 kcal/mol
   Rotational Enthalpy:           0.889 kcal/mol
   Vibrational Enthalpy:         85.911 kcal/mol
   gas constant (RT):             0.592 kcal/mol
   Translational Entropy:        39.949  cal/mol.K
   Rotational Entropy:           28.026  cal/mol.K
   Vibrational Entropy:          11.216  cal/mol.K

   Total Enthalpy:               88.281 kcal/mol
   Total Entropy:                79.191  cal/mol.K
 Total job time:  14717.24s(wall), 112553.77s(cpu)
        *  Thank you very much for using Q-Chem.  Have a nice day.  *
