 Q-Chem 5.4, Q-Chem, Inc., Pleasanton, CA (2021)
 Q-Chem 5.4.1 for Intel X86 EM64T Linux

User input:
--------------------------------------------------------------
$molecule
0 1
C        -0.0180167640   -0.9875079826    0.0524241794
C        -0.4354251643   -2.0794081371    0.8090140951
C        -1.7545972095   -2.1570768781    1.2559909891
C        -2.6496251859   -1.1379760987    0.9380957587
C        -2.2316330824   -0.0488612768    0.1741919574
C        -0.9128555319    0.0349100494   -0.2747511903
C        -0.4505031789    1.1984609892   -1.1260846200
H         1.0145649830   -0.9238249574   -0.2855119189
H         0.2713993434   -2.8663639594    1.0577210789
H        -2.0802979695   -3.0051042798    1.8518544007
H        -3.6783374475   -1.1895937653    1.2850141927
H        -2.9305264487    0.7454618890   -0.0714635845
H         0.5968121090    1.4326165843   -0.8914555225
O        -1.2696971129    2.3546462666   -1.0030831408
H        -0.4884696873    0.9216167883   -2.1854444700
H        -1.2249922526    2.6330831682   -0.0736138050
$end

$rem
BASIS = 6-311++G(2df,2p)
GUI = 2
JOB_TYPE = Optimization
METHOD = wB97M-V
SCF_ALGORITHM = DIIS_GDM
MAX_SCF_CYCLES = 400
GEOM_OPT_MAX_CYCLES = 150
SCF_CONVERGENCE = 7
THRESH = 12
Solvent_method = SMD
$end
--------------------------------------------------------------

   14    -346.7573687061      5.23e-08  Convergence criterion met
 Total energy in the final basis set =     -346.7521120404
   12    -346.7577283863      7.89e-08  Convergence criterion met
 Total energy in the final basis set =     -346.7525147109
   12    -346.7577402353      7.09e-08  Convergence criterion met
 Total energy in the final basis set =     -346.7525235892
   12    -346.7577446909      6.88e-08  Convergence criterion met
 Total energy in the final basis set =     -346.7525246237

             Standard Nuclear Orientation (Angstroms)
    I     Atom           X                Y                Z
 ----------------------------------------------------------------
    1      C      -0.0270514469    -0.9795995562     0.0547995429
    2      C      -0.4367339004    -2.0698142073     0.8085553590
    3      C      -1.7512713365    -2.1547858010     1.2523236112
    4      C      -2.6477454249    -1.1443924481     0.9337321869
    5      C      -2.2373519681    -0.0560062523     0.1725875943
    6      C      -0.9235485484     0.0345127281    -0.2732645737
    7      C      -0.4526056524     1.1888949991    -1.1245696326
    8      H       1.0012350658    -0.9095398510    -0.2800353330
    9      H       0.2715451361    -2.8488622124     1.0574115294
   10      H      -2.0717185319    -2.9999029342     1.8465516996
   11      H      -3.6721949764    -1.2019396686     1.2776197602
   12      H      -2.9430750084     0.7263847010    -0.0716503339
   13      H       0.5928751457     1.4055855179    -0.8942691968
   14      O      -1.2456580274     2.3628375436    -0.9921630272
   15      H      -0.5040465940     0.9137838820    -2.1784314727
   16      H      -1.1948545320     2.6579219591    -0.0762993136
 ----------------------------------------------------------------

   12    -346.7577489492      6.60e-08  Convergence criterion met
 Total energy in the final basis set =     -346.7525255212
 Final energy is   -346.752525521173
 **  OPTIMIZATION CONVERGED  **

                    Orbital Energies (a.u.)
 --------------------------------------------------------------

 Alpha MOs
 -- Occupied --
-19.3372 -10.3858 -10.3509 -10.3423 -10.3421 -10.3407 -10.3398 -10.3398
 -1.1558  -0.9856  -0.8886  -0.8679  -0.7957  -0.7197  -0.7009  -0.6364
 -0.6054  -0.5674  -0.5542  -0.5420  -0.5259  -0.5165  -0.4821  -0.4638
 -0.4386  -0.4288  -0.3936  -0.3460  -0.3354

          Ground-State Mulliken Net Atomic Charges

     Atom                 Charge (a.u.)
  ----------------------------------------
      1 C                    -0.503560
      2 C                    -0.351173
      3 C                    -0.374671
      4 C                    -0.377209
      5 C                    -0.168886
      6 C                     0.499415
      7 C                    -0.390589
      8 H                     0.271298
      9 H                     0.282468
     10 H                     0.276379
     11 H                     0.282624
     12 H                     0.268977
     13 H                     0.216464
     14 O                    -0.435811
     15 H                     0.175095
     16 H                     0.329178
  ----------------------------------------
  Sum of atomic charges =     0.000000

                    Cartesian Multipole Moments
 -----------------------------------------------------------------
    Charge (ESU x 10^10)
                 0.0000
    Dipole Moment (Debye)
         X       1.2742      Y      -0.8244      Z       1.4833
       Tot       2.1221
    Quadrupole Moments (Debye-Ang)
        XX     -46.2715     XY       1.6981     YY     -48.6999
        XZ      -4.9730     YZ       2.3518     ZZ     -50.5076

 Total job time:  733.77s(wall), 5614.43s(cpu)
        *  Thank you very much for using Q-Chem.  Have a nice day.  *
