 Q-Chem 5.4, Q-Chem, Inc., Pleasanton, CA (2021)
 Q-Chem 5.4.1 for Intel X86 EM64T Linux

User input:
--------------------------------------------------------------
$molecule
0 2
C        -0.4555682440    0.1706452427    1.2665990480
C        -0.3183308534   -1.1960411094    1.3716999944
C        -1.2398457934   -2.0605062557    0.7748321156
C        -2.3405455890   -1.5221085686    0.1026703065
C        -2.5035174805   -0.1585671720   -0.0103656364
C        -1.4880521993    0.7130357809    0.4618642279
C        -0.4315104569    0.9859978319   -1.3547301712
H         0.2454540260    0.8460668155    1.7387233818
H         0.5065363300   -1.6018129493    1.9431328014
H        -1.1255371753   -3.1313334739    0.8678340280
H        -3.0913275624   -2.1804542323   -0.3150523308
H        -3.3632089816    0.2653372148   -0.5148941626
H        -1.2253105192    1.4661391868   -1.9192902330
O         0.0260336939   -0.2098440473   -1.8531582633
H         0.3785097585    1.6108456458   -1.0025160859
H        -0.7123411194   -0.6929968828   -2.2432822777
O        -1.7561226946    2.0686460521    0.6456209313
H        -2.4611611995    2.3303767298    0.0413384394
$end

$rem
BASIS = 6-311++G(2df,2p)
GUI = 2
JOB_TYPE = Frequency
METHOD = wB97M-V
SOLVENT_METHOD = SMD
SCF_ALGORITHM = DIIS_GDM
MAX_SCF_CYCLES = 400
SCF_CONVERGENCE = 7
THRESH = 12
UNRESTRICTED = 1
SYMMETRY_IGNORE = 1
$end
--------------------------------------------------------------

   19    -422.5059203526      6.44e-08  Convergence criterion met
 Total energy in the final basis set =     -422.4991801843
   17    -422.5059193813      7.40e-08  Convergence criterion met
 Total energy in the final basis set =     -422.4991791262
   17    -422.5059196144      8.14e-08  Convergence criterion met
 Total energy in the final basis set =     -422.4991795288
   17    -422.5059200499      8.02e-08  Convergence criterion met
 Total energy in the final basis set =     -422.4991794240
   17    -422.5059180655      6.80e-08  Convergence criterion met
 Total energy in the final basis set =     -422.4991783513
   17    -422.5059201228      8.00e-08  Convergence criterion met
 Total energy in the final basis set =     -422.4991795466
   17    -422.5059194676      7.98e-08  Convergence criterion met
 Total energy in the final basis set =     -422.4991797041
   17    -422.5059199295      7.28e-08  Convergence criterion met
 Total energy in the final basis set =     -422.4991795781
   17    -422.5059209629      7.96e-08  Convergence criterion met
 Total energy in the final basis set =     -422.4991797909
   17    -422.5059193887      7.48e-08  Convergence criterion met
 Total energy in the final basis set =     -422.4991797316
   17    -422.5059203149      7.75e-08  Convergence criterion met
 Total energy in the final basis set =     -422.4991796354
   17    -422.5059210274      7.61e-08  Convergence criterion met
 Total energy in the final basis set =     -422.4991800876
   17    -422.5059193522      7.56e-08  Convergence criterion met
 Total energy in the final basis set =     -422.4991799552
   17    -422.5059202379      7.63e-08  Convergence criterion met
 Total energy in the final basis set =     -422.4991800991
   17    -422.5059197190      7.71e-08  Convergence criterion met
 Total energy in the final basis set =     -422.4991795209

                    Orbital Energies (a.u.)
 --------------------------------------------------------------

 Alpha MOs
 -- Occupied --
-19.3598 -19.3529 -10.4154 -10.3917 -10.3415 -10.3407 -10.3386 -10.3371
-10.3336  -1.1825  -1.1763  -0.9768  -0.8716  -0.8600  -0.7898  -0.7321
 -0.7154  -0.6464  -0.6370  -0.6022  -0.5704  -0.5638  -0.5513  -0.5302
 -0.5220  -0.4981  -0.4798  -0.4571  -0.4510  -0.4457  -0.4286  -0.3536
 -0.3429  -0.2336

 Beta MOs
 -- Occupied --
-19.3572 -19.3526 -10.4176 -10.3814 -10.3429 -10.3421 -10.3356 -10.3341
-10.3301  -1.1787  -1.1730  -0.9742  -0.8688  -0.8562  -0.7724  -0.7302
 -0.7122  -0.6454  -0.6293  -0.5991  -0.5681  -0.5558  -0.5399  -0.5253
 -0.5207  -0.4951  -0.4706  -0.4543  -0.4462  -0.4326  -0.4269  -0.3431
 -0.3178

          Ground-State Mulliken Net Atomic Charges

     Atom                 Charge (a.u.)    Spin (a.u.)
  --------------------------------------------------------
      1 C                    -0.133437       0.202027
      2 C                    -0.295667      -0.101910
      3 C                    -0.489666       0.242439
      4 C                    -0.311520      -0.100212
      5 C                    -0.118160       0.187390
      6 C                    -0.165515      -0.070040
      7 C                    -0.421426       0.586477
      8 H                     0.298333      -0.003098
      9 H                     0.289987       0.002604
     10 H                     0.282603      -0.006885
     11 H                     0.291941       0.002757
     12 H                     0.285875      -0.002604
     13 H                     0.250681       0.000522
     14 O                    -0.286505       0.066815
     15 H                     0.230604      -0.006098
     16 H                     0.321574      -0.000066
     17 O                    -0.380504       0.001462
     18 H                     0.350803      -0.001582
  --------------------------------------------------------
  Sum of atomic charges =    -0.000000

                    Cartesian Multipole Moments
 -----------------------------------------------------------------
    Charge (ESU x 10^10)
                 0.0000
    Dipole Moment (Debye)
         X      -2.6850      Y       0.2662      Z      -2.9496
       Tot       3.9975
    Quadrupole Moments (Debye-Ang)
        XX     -46.6624     XY      -1.6088     YY     -51.5712
        XZ      12.5625     YZ      -3.2062     ZZ     -55.4761

             Standard Nuclear Orientation (Angstroms)
    I     Atom           X                Y                Z
 ----------------------------------------------------------------
    1      C      -0.4555682440     0.1706452427     1.2665990480
    2      C      -0.3183308534    -1.1960411094     1.3716999944
    3      C      -1.2398457934    -2.0605062557     0.7748321156
    4      C      -2.3405455890    -1.5221085686     0.1026703065
    5      C      -2.5035174805    -0.1585671720    -0.0103656364
    6      C      -1.4880521993     0.7130357809     0.4618642279
    7      C      -0.4315104569     0.9859978319    -1.3547301712
    8      H       0.2454540260     0.8460668155     1.7387233818
    9      H       0.5065363300    -1.6018129493     1.9431328014
   10      H      -1.1255371753    -3.1313334739     0.8678340280
   11      H      -3.0913275624    -2.1804542323    -0.3150523308
   12      H      -3.3632089816     0.2653372148    -0.5148941626
   13      H      -1.2253105192     1.4661391868    -1.9192902330
   14      O       0.0260336939    -0.2098440473    -1.8531582633
   15      H       0.3785097585     1.6108456458    -1.0025160859
   16      H      -0.7123411194    -0.6929968828    -2.2432822777
   17      O      -1.7561226946     2.0686460521     0.6456209313
   18      H      -2.4611611995     2.3303767298     0.0413384394
 ----------------------------------------------------------------

 Frequency:      -586.52                  98.90                 115.41
 Force Cnst:      2.0434                 0.0181                 0.0407
 Red. Mass:      10.0819                 3.1422                 5.1913
 IR Intens:       43.098                  5.990                  0.361
 Frequency:       185.95                 231.31                 273.22
 Force Cnst:      0.0528                 0.1254                 0.0674
 Red. Mass:       2.5942                 3.9781                 1.5329
 IR Intens:        5.474                  1.392                 92.270
 Frequency:       306.45                 366.16                 403.11
 Force Cnst:      0.1307                 0.1117                 0.2613
 Red. Mass:       2.3625                 1.4141                 2.7289
 IR Intens:      135.179                186.761                100.111
 Frequency:       434.87                 440.64                 529.60
 Force Cnst:      0.2964                 0.3286                 1.1546
 Red. Mass:       2.6600                 2.8726                 6.9872
 IR Intens:        5.465                  8.183                  3.601
 Frequency:       614.88                 653.32                 674.84
 Force Cnst:      1.3353                 0.2857                 0.7198
 Red. Mass:       5.9943                 1.1361                 2.6828
 IR Intens:        1.054                 36.442                  2.355
 Frequency:       715.65                 798.97                 815.42
 Force Cnst:      0.3961                 1.8268                 0.5038
 Red. Mass:       1.3128                 4.8572                 1.2860
 IR Intens:      274.167                 23.231                  1.327
 Frequency:       864.62                 988.31                 994.71
 Force Cnst:      0.6094                 0.9718                 0.7881
 Red. Mass:       1.3836                 1.6886                 1.3519
 IR Intens:       23.549                 44.827                  0.118
 Frequency:       997.55                1005.02                1035.12
 Force Cnst:      1.4805                 0.8352                 1.3521
 Red. Mass:       2.5251                 1.4034                 2.1418
 IR Intens:       46.979                 10.885                 19.921
 Frequency:      1076.46                1093.35                1133.69
 Force Cnst:      0.9025                 1.0676                 1.8628
 Red. Mass:       1.3219                 1.5159                 2.4600
 IR Intens:      249.310                 19.652                125.352
 Frequency:      1145.97                1171.82                1186.45
 Force Cnst:      0.8891                 0.9288                 1.1615
 Red. Mass:       1.1491                 1.1481                 1.4005
 IR Intens:       11.319                 44.055                194.386
 Frequency:      1269.10                1323.47                1362.60
 Force Cnst:      3.7706                 3.2728                 1.4475
 Red. Mass:       3.9734                 3.1713                 1.3232
 IR Intens:      140.709                 25.333                 50.857
 Frequency:      1365.61                1459.73                1495.12
 Force Cnst:      1.3908                 1.4067                 3.1275
 Red. Mass:       1.2658                 1.1205                 2.3746
 IR Intens:       31.411                  9.086                 99.029
 Frequency:      1509.15                1600.09                1626.34
 Force Cnst:      3.0627                 7.7250                 8.6590
 Red. Mass:       2.2824                 5.1211                 5.5564
 IR Intens:       37.786                 24.500                101.816
 Frequency:      3095.53                3178.80                3184.56
 Force Cnst:      5.9194                 6.4703                 6.4961
 Red. Mass:       1.0485                 1.0868                 1.0872
 IR Intens:       37.868                 11.712                  5.432
 Frequency:      3193.96                3201.64                3212.80
 Force Cnst:      6.5710                 6.6059                 6.6734
 Red. Mass:       1.0932                 1.0938                 1.0973
 IR Intens:       20.110                 24.544                 16.583
 Frequency:      3230.94                3807.19                3814.50
 Force Cnst:      6.8945                 9.1030                 9.1409
 Red. Mass:       1.1210                 1.0659                 1.0663
 IR Intens:       19.799                132.631                167.338

 STANDARD THERMODYNAMIC QUANTITIES AT   298.15 K  AND     1.00 ATM

   This Molecule has  1 Imaginary Frequencies
   Zero point vibrational energy:       90.468 kcal/mol

   Atom    1 Element C  Has Mass   12.00000
   Atom    2 Element C  Has Mass   12.00000
   Atom    3 Element C  Has Mass   12.00000
   Atom    4 Element C  Has Mass   12.00000
   Atom    5 Element C  Has Mass   12.00000
   Atom    6 Element C  Has Mass   12.00000
   Atom    7 Element C  Has Mass   12.00000
   Atom    8 Element H  Has Mass    1.00783
   Atom    9 Element H  Has Mass    1.00783
   Atom   10 Element H  Has Mass    1.00783
   Atom   11 Element H  Has Mass    1.00783
   Atom   12 Element H  Has Mass    1.00783
   Atom   13 Element H  Has Mass    1.00783
   Atom   14 Element O  Has Mass   15.99491
   Atom   15 Element H  Has Mass    1.00783
   Atom   16 Element H  Has Mass    1.00783
   Atom   17 Element O  Has Mass   15.99491
   Atom   18 Element H  Has Mass    1.00783
   Molecular Mass:   125.060290 amu
   Principal axes and moments of inertia in amu*Bohr^2:
                             1           2           3
    Eigenvalues --      880.18320  1128.31697  1351.51516
          X               0.08274    -0.46646     0.88066
          Y               0.91468     0.38635     0.11871
          Z              -0.39562     0.79570     0.45863
   Rotational Symmetry Number is   1
   The Molecule is an Asymmetric Top
   Translational Enthalpy:        0.889 kcal/mol
   Rotational Enthalpy:           0.889 kcal/mol
   Vibrational Enthalpy:         94.177 kcal/mol
   gas constant (RT):             0.592 kcal/mol
   Translational Entropy:        40.384  cal/mol.K
   Rotational Entropy:           28.686  cal/mol.K
   Vibrational Entropy:          20.968  cal/mol.K

   Total Enthalpy:               96.547 kcal/mol
   Total Entropy:                90.038  cal/mol.K
 Total job time:  33675.79s(wall), 259238.57s(cpu)
        *  Thank you very much for using Q-Chem.  Have a nice day.  *
