 Q-Chem 5.4, Q-Chem, Inc., Pleasanton, CA (2021)
 Q-Chem 5.4.1 for Intel X86 EM64T Linux

User input:
--------------------------------------------------------------
$molecule
0 2
C        -0.3078310227   -0.1644196543    0.8268813898
C        -0.4614953476   -1.4475241448    1.2368322324
C        -1.6342088633   -2.1764041516    0.9313925925
C        -2.6831758041   -1.5459870036    0.2222149615
C        -2.5761197590   -0.2619514340   -0.1983901968
C        -1.3411895213    0.5530839377    0.0102954824
C        -0.7705979294    0.9417319298   -1.3678783904
H         0.5877298026    0.3929082172    1.0755982680
H         0.3194227059   -1.9229921808    1.8159840550
H        -1.7405915389   -3.1993800117    1.2616018488
H        -3.5920840748   -2.0992055524    0.0243966821
H        -3.3853628211    0.2227058277   -0.7303132190
H        -0.4141564047    0.0502950539   -1.8856057985
O         0.2602172607    1.9156834194   -1.2505439927
H        -1.5657596448    1.4003337908   -1.9543855575
H         1.0629493795    1.4816124218   -0.9419391430
O        -1.7283520013    1.7771363819    0.6750258395
H        -1.0042368153    2.4033961530    0.5360118459
****
C    0.0653276    0.4726431    1.5038380
C    0.1824204   -0.9073444    1.5692109
C   -0.7238511   -1.7282507    0.9070677
C   -1.7566848   -1.1527492    0.1763433
C   -1.8855817    0.2295823    0.1028568
C   -0.9707275    1.0354721    0.7694293
C    0.7478080    0.8772265   -2.2380580
H    0.7685018    1.1192853    2.0111200
H    0.9911596   -1.3445362    2.1391571
H   -0.6250941   -2.8034714    0.9573431
H   -2.4677426   -1.7793199   -0.3450248
H   -2.6852968    0.6844155   -0.4681950
H   -0.1653208    1.4290388   -2.0693307
O    0.7803205   -0.4497109   -1.9038578
H    1.4781553    1.1659322   -2.9765045
H    0.0403010   -0.6504106   -1.3136108
O   -1.0453926    2.4053276    0.7246017
H   -1.7907241    2.6689028    0.1716630
$end

$rem
BASIS = 6-311++G(2df,2p)
GUI = 2
JOB_TYPE = FSM
FSM_MODE = 2
METHOD = wB97M-v
MAX_SCF_CYCLES = 120
FSM_NGRAD = 6
FSM_NNODE = 20
SCF_CONVERGENCE = 7
THRESH = 12
SCF_ALGORITHM = DIIS_GDM
UNRESTRICTED = 1
solvent_method = SMD
$end

--------------------------------------------------------------

   19    -422.5367018164      3.98e-08  Convergence criterion met
 Total energy in the final basis set =     -422.5311040495
   18    -422.5299824623      4.30e-08  Convergence criterion met
 Total energy in the final basis set =     -422.5208108610
   19    -422.5299142925      8.73e-08  Convergence criterion met
 Total energy in the final basis set =     -422.5242144435
   19    -422.5324459477      4.49e-08  Convergence criterion met
 Total energy in the final basis set =     -422.5268395271
   18    -422.5287791471      4.06e-08  Convergence criterion met
 Total energy in the final basis set =     -422.5196815136
   16    -422.5285820083      4.59e-08  Convergence criterion met
 Total energy in the final basis set =     -422.5195155554
   18    -422.5278828693      3.82e-08  Convergence criterion met
 Total energy in the final basis set =     -422.5186761971
   18    -422.5286311834      4.87e-08  Convergence criterion met
 Total job time:  25049.53s(wall), 193946.00s(cpu)
        *  Thank you very much for using Q-Chem.  Have a nice day.  *
 Q-Chem 5.4, Q-Chem, Inc., Pleasanton, CA (2021)
 Q-Chem 5.4.1 for Intel X86 EM64T Linux

User input:
--------------------------------------------------------------

$rem
JOBTYPE = ts
SCF_GUESS = read
GEOM_OPT_HESSIAN = read
MAX_SCF_CYCLES = 350
GEOM_OPT_DMAX = 60
GEOM_OPT_MAX_CYCLES = 250
METHOD = wB97M-v
BASIS = 6-311++G(2df,2p)
SCF_CONVERGENCE = 7
THRESH = 12
SCF_ALGORITHM = DIIS_GDM
UNRESTRICTED = 1
solvent_method = SMD
$end

$molecule
read
$end

--------------------------------------------------------------

   17    -422.5059154416      6.63e-08  Convergence criterion met
 Total energy in the final basis set =     -422.4991779633
   17    -422.5059199568      7.40e-08  Convergence criterion met
 Total energy in the final basis set =     -422.4991734894
   17    -422.5059248700      8.29e-08  Convergence criterion met
 Total energy in the final basis set =     -422.4991725608
   17    -422.5059191962      7.89e-08  Convergence criterion met
 Total energy in the final basis set =     -422.4991785218
   17    -422.5059126338      7.09e-08  Convergence criterion met
 Total energy in the final basis set =     -422.4991768469
   17    -422.5059237105      7.66e-08  Convergence criterion met
 Total energy in the final basis set =     -422.4991799173

             Standard Nuclear Orientation (Angstroms)
    I     Atom           X                Y                Z
 ----------------------------------------------------------------
    1      C      -0.4555682440     0.1706452427     1.2665990480
    2      C      -0.3183308534    -1.1960411094     1.3716999944
    3      C      -1.2398457934    -2.0605062557     0.7748321156
    4      C      -2.3405455890    -1.5221085686     0.1026703065
    5      C      -2.5035174805    -0.1585671720    -0.0103656364
    6      C      -1.4880521993     0.7130357809     0.4618642279
    7      C      -0.4315104569     0.9859978319    -1.3547301712
    8      H       0.2454540260     0.8460668155     1.7387233818
    9      H       0.5065363300    -1.6018129493     1.9431328014
   10      H      -1.1255371753    -3.1313334739     0.8678340280
   11      H      -3.0913275624    -2.1804542323    -0.3150523308
   12      H      -3.3632089816     0.2653372148    -0.5148941626
   13      H      -1.2253105192     1.4661391868    -1.9192902330
   14      O       0.0260336939    -0.2098440473    -1.8531582633
   15      H       0.3785097585     1.6108456458    -1.0025160859
   16      H      -0.7123411194    -0.6929968828    -2.2432822777
   17      O      -1.7561226946     2.0686460521     0.6456209313
   18      H      -2.4611611995     2.3303767298     0.0413384394
 ----------------------------------------------------------------

   17    -422.5059203525      8.78e-08  Convergence criterion met
 Total energy in the final basis set =     -422.4991801842
 Final energy is   -422.499180184158
 **  OPTIMIZATION CONVERGED  **

                    Orbital Energies (a.u.)
 --------------------------------------------------------------

 Alpha MOs
 -- Occupied --
-19.3598 -19.3528 -10.4154 -10.3917 -10.3415 -10.3407 -10.3386 -10.3371
-10.3336  -1.1825  -1.1764  -0.9768  -0.8716  -0.8600  -0.7898  -0.7321
 -0.7154  -0.6465  -0.6370  -0.6022  -0.5704  -0.5638  -0.5513  -0.5302
 -0.5220  -0.4981  -0.4798  -0.4571  -0.4510  -0.4457  -0.4286  -0.3536
 -0.3429  -0.2336

 Beta MOs
 -- Occupied --
-19.3572 -19.3526 -10.4176 -10.3814 -10.3429 -10.3421 -10.3356 -10.3341
-10.3301  -1.1788  -1.1730  -0.9742  -0.8688  -0.8563  -0.7724  -0.7302
 -0.7123  -0.6455  -0.6293  -0.5991  -0.5681  -0.5558  -0.5399  -0.5253
 -0.5207  -0.4951  -0.4706  -0.4543  -0.4462  -0.4326  -0.4269  -0.3431
 -0.3178

          Ground-State Mulliken Net Atomic Charges

     Atom                 Charge (a.u.)    Spin (a.u.)
  --------------------------------------------------------
      1 C                    -0.133529       0.202026
      2 C                    -0.295682      -0.101903
      3 C                    -0.489539       0.242439
      4 C                    -0.311518      -0.100204
      5 C                    -0.118099       0.187407
      6 C                    -0.165602      -0.070064
      7 C                    -0.421420       0.586470
      8 H                     0.298330      -0.003098
      9 H                     0.289984       0.002604
     10 H                     0.282607      -0.006886
     11 H                     0.291935       0.002758
     12 H                     0.285877      -0.002605
     13 H                     0.250685       0.000520
     14 O                    -0.286508       0.066815
     15 H                     0.230603      -0.006097
     16 H                     0.321575      -0.000066
     17 O                    -0.380345       0.001467
     18 H                     0.350648      -0.001584
  --------------------------------------------------------
  Sum of atomic charges =    -0.000000

                    Cartesian Multipole Moments
 -----------------------------------------------------------------
    Charge (ESU x 10^10)
                 0.0000
    Dipole Moment (Debye)
         X      -2.6853      Y       0.2661      Z      -2.9480
       Tot       3.9966
    Quadrupole Moments (Debye-Ang)
        XX     -46.6598     XY      -1.6096     YY     -51.5707
        XZ      12.5577     YZ      -3.2021     ZZ     -55.4762

 Total job time:  23934.50s(wall), 185468.90s(cpu)
        *  Thank you very much for using Q-Chem.  Have a nice day.  *
