 Q-Chem 5.4, Q-Chem, Inc., Pleasanton, CA (2021)
 Q-Chem 5.4.1 for Intel X86 EM64T Linux

User input:
--------------------------------------------------------------
$molecule
0 2
C         0.0236043376   -0.2131652861    0.8025716002
C        -0.8079937956   -0.9944727489    1.8119988750
C        -1.5614650554   -2.1820327628    1.2452598923
C        -2.0376520010   -2.0769881719   -0.1408602532
C        -1.7186387183   -0.8531574725   -0.8710066965
C        -1.1271927671    0.2693352622   -0.0894535026
C        -0.7654342214    1.4946268605   -0.9125166498
H         0.4454334215    0.6506726203    1.3218052905
H        -0.2736415591   -1.2305359006    2.7294025047
H        -2.1382098076   -2.7476544068    1.9672542828
H        -2.9092696647   -2.6402610795   -0.4444501699
H        -2.0685491144   -0.7013681340   -1.8823655345
H        -1.6151778919    1.8229052855   -1.5121994620
O         0.3616277228    1.2097156511   -1.7361380907
H        -0.4736220415    2.2970926620   -0.2387377678
H         0.0747583999    0.6566340872   -2.4715593949
O         1.0290402955   -0.9433179048    0.1437850338
H         1.3580161388   -0.3722081217   -0.5640118547
O        -1.7721475847   -0.0016739797    2.1641128793
O        -2.1037304273    0.6831301320    0.9073342406
O        -0.9214681660   -2.9542541916    0.2399341777
$end

$rem
BASIS = 6-311++G(2df,2p)
GUI = 2
JOB_TYPE = Frequency
METHOD = wB97M-V
SOLVENT_METHOD = SMD
SCF_ALGORITHM = DIIS_GDM
MAX_SCF_CYCLES = 400
SCF_CONVERGENCE = 7
THRESH = 12
$end
--------------------------------------------------------------

   18    -648.1082442785      5.28e-08  Convergence criterion met
 Total energy in the final basis set =     -648.1038559378
   17    -648.1082469902      5.03e-08  Convergence criterion met
 Total energy in the final basis set =     -648.1038550443
   17    -648.1082396331      5.01e-08  Convergence criterion met
 Total energy in the final basis set =     -648.1038546848
   17    -648.1082408511      5.02e-08  Convergence criterion met
 Total energy in the final basis set =     -648.1038548204
   17    -648.1082457145      5.05e-08  Convergence criterion met
 Total energy in the final basis set =     -648.1038549553
   17    -648.1082412253      5.01e-08  Convergence criterion met
 Total energy in the final basis set =     -648.1038548681
   17    -648.1082455161      5.02e-08  Convergence criterion met
 Total energy in the final basis set =     -648.1038551040
   17    -648.1082434494      4.99e-08  Convergence criterion met
 Total energy in the final basis set =     -648.1038552800
   17    -648.1082437470      4.78e-08  Convergence criterion met
 Total energy in the final basis set =     -648.1038555695
   17    -648.1082439092      5.08e-08  Convergence criterion met
 Total energy in the final basis set =     -648.1038554956
   17    -648.1082438502      5.03e-08  Convergence criterion met
 Total energy in the final basis set =     -648.1038555689
   17    -648.1082442745      4.99e-08  Convergence criterion met
 Total energy in the final basis set =     -648.1038556031
   17    -648.1082435650      5.10e-08  Convergence criterion met
 Total energy in the final basis set =     -648.1038555351
   17    -648.1082439250      4.96e-08  Convergence criterion met
 Total energy in the final basis set =     -648.1038555249
   17    -648.1082439840      5.07e-08  Convergence criterion met
 Total energy in the final basis set =     -648.1038556694

                    Orbital Energies (a.u.)
 --------------------------------------------------------------

 Alpha MOs
 -- Occupied --
-19.4079 -19.4055 -19.3609 -19.3482 -19.3452 -10.4161 -10.4118 -10.4097
-10.4054 -10.4049 -10.3941 -10.3689  -1.2751  -1.2152  -1.1744  -1.1617
 -1.0744  -0.9515  -0.8738  -0.8469  -0.8059  -0.7560  -0.7199  -0.6995
 -0.6683  -0.6411  -0.6150  -0.6071  -0.5981  -0.5862  -0.5686  -0.5512
 -0.5307  -0.5266  -0.5155  -0.4996  -0.4935  -0.4786  -0.4499  -0.4468
 -0.4265  -0.4169  -0.3932  -0.3804  -0.3668  -0.3153

 Beta MOs
 -- Occupied --
-19.4079 -19.4035 -19.3579 -19.3480 -19.3451 -10.4169 -10.4118 -10.4092
-10.4065 -10.4044 -10.3941 -10.3565  -1.2731  -1.2097  -1.1740  -1.1613
 -1.0716  -0.9448  -0.8594  -0.8454  -0.8038  -0.7507  -0.7166  -0.6955
 -0.6649  -0.6368  -0.6128  -0.6034  -0.5939  -0.5832  -0.5669  -0.5449
 -0.5273  -0.5217  -0.5078  -0.4965  -0.4901  -0.4760  -0.4460  -0.4440
 -0.4211  -0.4108  -0.3921  -0.3783  -0.3616

          Ground-State Mulliken Net Atomic Charges

     Atom                 Charge (a.u.)    Spin (a.u.)
  --------------------------------------------------------
      1 C                    -0.182094       0.045711
      2 C                    -0.024497      -0.022797
      3 C                    -0.417258       0.066350
      4 C                    -0.093975      -0.041432
      5 C                    -0.457641       0.923417
      6 C                     0.194087      -0.103871
      7 C                    -0.328551       0.012022
      8 H                     0.331243      -0.001165
      9 H                     0.270552       0.000756
     10 H                     0.274316       0.002057
     11 H                     0.257760       0.008794
     12 H                     0.330469      -0.016689
     13 H                     0.249599      -0.000054
     14 O                    -0.378035       0.003361
     15 H                     0.237348      -0.001045
     16 H                     0.326484       0.000786
     17 O                    -0.416938       0.004952
     18 H                     0.338186       0.003103
     19 O                    -0.109140       0.003427
     20 O                    -0.120771       0.037357
     21 O                    -0.281144       0.074961
  --------------------------------------------------------
  Sum of atomic charges =     0.000000

                    Cartesian Multipole Moments
 -----------------------------------------------------------------
    Charge (ESU x 10^10)
                -0.0000
    Dipole Moment (Debye)
         X      -1.3996      Y       1.2734      Z      -2.5747
       Tot       3.1952
    Quadrupole Moments (Debye-Ang)
        XX     -71.7394     XY       7.1963     YY     -78.5943
        XZ       8.4103     YZ      -3.8974     ZZ     -60.9722

             Standard Nuclear Orientation (Angstroms)
    I     Atom           X                Y                Z
 ----------------------------------------------------------------
    1      C       0.0236043376    -0.2131652861     0.8025716002
    2      C      -0.8079937956    -0.9944727489     1.8119988750
    3      C      -1.5614650554    -2.1820327628     1.2452598923
    4      C      -2.0376520010    -2.0769881719    -0.1408602532
    5      C      -1.7186387183    -0.8531574725    -0.8710066965
    6      C      -1.1271927671     0.2693352622    -0.0894535026
    7      C      -0.7654342214     1.4946268605    -0.9125166498
    8      H       0.4454334215     0.6506726203     1.3218052905
    9      H      -0.2736415591    -1.2305359006     2.7294025047
   10      H      -2.1382098076    -2.7476544068     1.9672542828
   11      H      -2.9092696647    -2.6402610795    -0.4444501699
   12      H      -2.0685491144    -0.7013681340    -1.8823655345
   13      H      -1.6151778919     1.8229052855    -1.5121994620
   14      O       0.3616277228     1.2097156511    -1.7361380907
   15      H      -0.4736220415     2.2970926620    -0.2387377678
   16      H       0.0747583999     0.6566340872    -2.4715593949
   17      O       1.0290402955    -0.9433179048     0.1437850338
   18      H       1.3580161388    -0.3722081217    -0.5640118547
   19      O      -1.7721475847    -0.0016739797     2.1641128793
   20      O      -2.1037304273     0.6831301320     0.9073342406
   21      O      -0.9214681660    -2.9542541916     0.2399341777
 ----------------------------------------------------------------

 Frequency:        88.63                 115.33                 169.31
 Force Cnst:      0.0255                 0.0306                 0.0488
 Red. Mass:       5.5038                 3.9082                 2.8894
 IR Intens:        6.017                 11.537                 63.712
 Frequency:       195.31                 233.47                 267.49
 Force Cnst:      0.1410                 0.1798                 0.0882
 Red. Mass:       6.2714                 5.5990                 2.0918
 IR Intens:        0.534                 14.297                 31.016
 Frequency:       276.83                 312.85                 337.22
 Force Cnst:      0.1710                 0.0777                 0.1121
 Red. Mass:       3.7881                 1.3470                 1.6725
 IR Intens:       41.201                223.985                 13.600
 Frequency:       362.97                 385.57                 410.81
 Force Cnst:      0.2811                 0.1333                 0.4900
 Red. Mass:       3.6218                 1.5214                 4.9282
 IR Intens:       59.680                144.638                 22.092
 Frequency:       439.25                 506.56                 580.85
 Force Cnst:      0.5493                 0.8663                 1.0755
 Red. Mass:       4.8322                 5.7300                 5.4106
 IR Intens:       25.830                  7.745                 16.108
 Frequency:       623.55                 639.03                 700.07
 Force Cnst:      1.6795                 1.2827                 1.7778
 Red. Mass:       7.3315                 5.3312                 6.1565
 IR Intens:        8.058                  2.740                 21.525
 Frequency:       752.66                 775.58                 846.49
 Force Cnst:      2.3327                 1.7953                 1.3049
 Red. Mass:       6.9889                 5.0655                 3.0909
 IR Intens:       83.853                  7.305                 49.796
 Frequency:       876.59                 896.56                 929.80
 Force Cnst:      3.1002                 1.1073                 2.1879
 Red. Mass:       6.8478                 2.3381                 4.2954
 IR Intens:       14.215                  7.750                 21.614
 Frequency:       959.83                 986.54                1023.44
 Force Cnst:      1.0342                 3.1407                 2.0532
 Red. Mass:       1.9053                 5.4770                 3.3271
 IR Intens:       77.521                 64.512                 29.327
 Frequency:      1036.51                1057.90                1068.69
 Force Cnst:      1.0477                 2.1749                 2.6367
 Red. Mass:       1.6552                 3.2984                 3.9184
 IR Intens:       13.198                 66.342                167.453
 Frequency:      1080.70                1157.71                1162.43
 Force Cnst:      0.9905                 1.1989                 1.0364
 Red. Mass:       1.4394                 1.5182                 1.3019
 IR Intens:        5.986                 19.859                  4.765
 Frequency:      1196.19                1229.06                1256.95
 Force Cnst:      1.2967                 1.7652                 1.2327
 Red. Mass:       1.5381                 1.9833                 1.3243
 IR Intens:       15.903                 34.204                  9.037
 Frequency:      1280.03                1297.63                1314.15
 Force Cnst:      1.7414                 1.6268                 1.4978
 Red. Mass:       1.8039                 1.6397                 1.4720
 IR Intens:       28.551                 17.398                 48.754
 Frequency:      1348.03                1359.69                1381.22
 Force Cnst:      2.0354                 1.7589                 1.9627
 Red. Mass:       1.9011                 1.6148                 1.7461
 IR Intens:      107.823                 75.950                  3.994
 Frequency:      1399.70                1421.03                1430.11
 Force Cnst:      1.3854                 1.8083                 2.3915
 Red. Mass:       1.2002                 1.5199                 1.9846
 IR Intens:       40.604                 14.780                 13.115
 Frequency:      1449.39                1483.66                1492.99
 Force Cnst:      3.4658                 2.8240                 1.4727
 Red. Mass:       2.8002                 2.1775                 1.1214
 IR Intens:       17.801                 38.306                  5.177
 Frequency:      3061.44                3071.78                3137.15
 Force Cnst:      5.9929                 5.9044                 6.3089
 Red. Mass:       1.0853                 1.0621                 1.0880
 IR Intens:       43.867                 52.933                  3.578
 Frequency:      3139.39                3169.55                3191.28
 Force Cnst:      6.4203                 6.4528                 6.5429
 Red. Mass:       1.1056                 1.0902                 1.0904
 IR Intens:       27.756                 20.318                 12.359
 Frequency:      3213.20                3758.97                3821.29
 Force Cnst:      6.6412                 8.8771                 9.1767
 Red. Mass:       1.0917                 1.0663                 1.0666
 IR Intens:        6.108                242.310                121.656

 STANDARD THERMODYNAMIC QUANTITIES AT   298.15 K  AND     1.00 ATM

   This Molecule has  0 Imaginary Frequencies
   Zero point vibrational energy:      101.729 kcal/mol

   Atom    1 Element C  Has Mass   12.00000
   Atom    2 Element C  Has Mass   12.00000
   Atom    3 Element C  Has Mass   12.00000
   Atom    4 Element C  Has Mass   12.00000
   Atom    5 Element C  Has Mass   12.00000
   Atom    6 Element C  Has Mass   12.00000
   Atom    7 Element C  Has Mass   12.00000
   Atom    8 Element H  Has Mass    1.00783
   Atom    9 Element H  Has Mass    1.00783
   Atom   10 Element H  Has Mass    1.00783
   Atom   11 Element H  Has Mass    1.00783
   Atom   12 Element H  Has Mass    1.00783
   Atom   13 Element H  Has Mass    1.00783
   Atom   14 Element O  Has Mass   15.99491
   Atom   15 Element H  Has Mass    1.00783
   Atom   16 Element H  Has Mass    1.00783
   Atom   17 Element O  Has Mass   15.99491
   Atom   18 Element H  Has Mass    1.00783
   Atom   19 Element O  Has Mass   15.99491
   Atom   20 Element O  Has Mass   15.99491
   Atom   21 Element O  Has Mass   15.99491
   Molecular Mass:   173.045020 amu
   Principal axes and moments of inertia in amu*Bohr^2:
                             1           2           3
    Eigenvalues --     1205.69786  1890.11086  2147.24334
          X               0.31450    -0.49170     0.81198
          Y               0.78613     0.61436     0.06754
          Z              -0.53206     0.61708     0.57976
   Rotational Symmetry Number is   1
   The Molecule is an Asymmetric Top
   Translational Enthalpy:        0.889 kcal/mol
   Rotational Enthalpy:           0.889 kcal/mol
   Vibrational Enthalpy:        106.559 kcal/mol
   gas constant (RT):             0.592 kcal/mol
   Translational Entropy:        41.352  cal/mol.K
   Rotational Entropy:           29.971  cal/mol.K
   Vibrational Entropy:          27.286  cal/mol.K

   Total Enthalpy:              108.929 kcal/mol
   Total Entropy:                98.610  cal/mol.K
 Total job time:  40425.27s(wall), 580480.86s(cpu)
        *  Thank you very much for using Q-Chem.  Have a nice day.  *
