 Q-Chem 5.4, Q-Chem, Inc., Pleasanton, CA (2021)
 Q-Chem 5.4.1 for Intel X86 EM64T Linux

User input:
--------------------------------------------------------------
$molecule
0 2
C         0.0212145897   -0.2078861312    0.8030780658
C        -0.8072516979   -0.9938117986    1.8164551712
C        -1.5528216605   -2.1895446094    1.2468361035
C        -2.0281638313   -2.0846663853   -0.1449059987
C        -1.7200748880   -0.8499225687   -0.8730484718
C        -1.1372389519    0.2775901657   -0.0821396745
C        -0.7509119748    1.4962322548   -0.9113002593
H         0.4462346905    0.6592671648    1.3272859261
H        -0.2719583244   -1.2256961570    2.7400419941
H        -2.1313953776   -2.7640615734    1.9685116979
H        -2.9013057863   -2.6552142708   -0.4503503570
H        -2.1017938626   -0.6878662064   -1.8763246735
H        -1.5855400484    1.8303397415   -1.5375070369
O         0.3956066200    1.1842016553   -1.7035598408
H        -0.4630109597    2.3070063276   -0.2380775069
H         0.1003102476    0.6163214236   -2.4351673691
O         1.0169902055   -0.9283031954    0.1186593716
H         1.2712010487   -0.3407212932   -0.6195861291
O        -1.7791449471   -0.0050734089    2.1739485433
O        -2.1170645402    0.6888579653    0.9107526038
O        -0.9055930513   -2.9540267003    0.2365572403
$end

$rem
BASIS = 6-311++G(2df,2p)
GUI = 2
JOB_TYPE = Optimization
METHOD = wB97M-V
SCF_ALGORITHM = DIIS_GDM
MAX_SCF_CYCLES = 400
GEOM_OPT_MAX_CYCLES = 150
SCF_CONVERGENCE = 7
THRESH = 12
Solvent_method = SMD
$end
--------------------------------------------------------------

   18    -648.1075029210      4.82e-08  Convergence criterion met
 Total energy in the final basis set =     -648.1031679303
   17    -648.1081741905      4.06e-08  Convergence criterion met
 Total energy in the final basis set =     -648.1037980944
   17    -648.1082119835      5.19e-08  Convergence criterion met
 Total energy in the final basis set =     -648.1038359724
   17    -648.1082286455      5.05e-08  Convergence criterion met
 Total energy in the final basis set =     -648.1038469321
   17    -648.1082372026      5.07e-08  Convergence criterion met
 Total energy in the final basis set =     -648.1038511370
   17    -648.1082410504      5.11e-08  Convergence criterion met
 Total energy in the final basis set =     -648.1038536795
   17    -648.1082436591      5.07e-08  Convergence criterion met
 Total energy in the final basis set =     -648.1038553385

             Standard Nuclear Orientation (Angstroms)
    I     Atom           X                Y                Z
 ----------------------------------------------------------------
    1      C       0.0236043376    -0.2131652861     0.8025716002
    2      C      -0.8079937956    -0.9944727489     1.8119988750
    3      C      -1.5614650554    -2.1820327628     1.2452598923
    4      C      -2.0376520010    -2.0769881719    -0.1408602532
    5      C      -1.7186387183    -0.8531574725    -0.8710066965
    6      C      -1.1271927671     0.2693352622    -0.0894535026
    7      C      -0.7654342214     1.4946268605    -0.9125166498
    8      H       0.4454334215     0.6506726203     1.3218052905
    9      H      -0.2736415591    -1.2305359006     2.7294025047
   10      H      -2.1382098076    -2.7476544068     1.9672542828
   11      H      -2.9092696647    -2.6402610795    -0.4444501699
   12      H      -2.0685491144    -0.7013681340    -1.8823655345
   13      H      -1.6151778919     1.8229052855    -1.5121994620
   14      O       0.3616277228     1.2097156511    -1.7361380907
   15      H      -0.4736220415     2.2970926620    -0.2387377678
   16      H       0.0747583999     0.6566340872    -2.4715593949
   17      O       1.0290402955    -0.9433179048     0.1437850338
   18      H       1.3580161388    -0.3722081217    -0.5640118547
   19      O      -1.7721475847    -0.0016739797     2.1641128793
   20      O      -2.1037304273     0.6831301320     0.9073342406
   21      O      -0.9214681660    -2.9542541916     0.2399341777
 ----------------------------------------------------------------

   17    -648.1082442788      5.01e-08  Convergence criterion met
 Total energy in the final basis set =     -648.1038559381
 Final energy is   -648.103855938132
 **  OPTIMIZATION CONVERGED  **

                    Orbital Energies (a.u.)
 --------------------------------------------------------------

 Alpha MOs
 -- Occupied --
-19.4079 -19.4055 -19.3609 -19.3482 -19.3452 -10.4161 -10.4118 -10.4097
-10.4054 -10.4049 -10.3941 -10.3690  -1.2751  -1.2153  -1.1744  -1.1617
 -1.0744  -0.9515  -0.8738  -0.8469  -0.8059  -0.7561  -0.7198  -0.6995
 -0.6683  -0.6411  -0.6150  -0.6071  -0.5981  -0.5862  -0.5686  -0.5512
 -0.5307  -0.5266  -0.5155  -0.4996  -0.4935  -0.4787  -0.4499  -0.4468
 -0.4265  -0.4170  -0.3932  -0.3804  -0.3668  -0.3153

 Beta MOs
 -- Occupied --
-19.4079 -19.4035 -19.3579 -19.3480 -19.3451 -10.4169 -10.4118 -10.4092
-10.4065 -10.4044 -10.3941 -10.3566  -1.2731  -1.2098  -1.1740  -1.1613
 -1.0716  -0.9448  -0.8594  -0.8454  -0.8038  -0.7507  -0.7166  -0.6956
 -0.6650  -0.6368  -0.6128  -0.6034  -0.5939  -0.5832  -0.5669  -0.5449
 -0.5273  -0.5217  -0.5078  -0.4965  -0.4901  -0.4761  -0.4460  -0.4440
 -0.4212  -0.4108  -0.3921  -0.3783  -0.3616

          Ground-State Mulliken Net Atomic Charges

     Atom                 Charge (a.u.)    Spin (a.u.)
  --------------------------------------------------------
      1 C                    -0.182080       0.045712
      2 C                    -0.024823      -0.022827
      3 C                    -0.416571       0.066478
      4 C                    -0.094637      -0.041570
      5 C                    -0.457457       0.923357
      6 C                     0.194196      -0.103900
      7 C                    -0.328579       0.012027
      8 H                     0.331241      -0.001167
      9 H                     0.270546       0.000757
     10 H                     0.274248       0.002062
     11 H                     0.257773       0.008782
     12 H                     0.330480      -0.016689
     13 H                     0.249597      -0.000054
     14 O                    -0.378042       0.003361
     15 H                     0.237351      -0.001044
     16 H                     0.326484       0.000784
     17 O                    -0.416933       0.004952
     18 H                     0.338184       0.003103
     19 O                    -0.109153       0.003430
     20 O                    -0.120798       0.037354
     21 O                    -0.281025       0.075091
  --------------------------------------------------------
  Sum of atomic charges =     0.000000

                    Cartesian Multipole Moments
 -----------------------------------------------------------------
    Charge (ESU x 10^10)
                 0.0000
    Dipole Moment (Debye)
         X      -1.3988      Y       1.2725      Z      -2.5771
       Tot       3.1965
    Quadrupole Moments (Debye-Ang)
        XX     -71.7412     XY       7.1956     YY     -78.5903
        XZ       8.4148     YZ      -3.8927     ZZ     -60.9750

 Total job time:  2935.65s(wall), 41618.85s(cpu)
        *  Thank you very much for using Q-Chem.  Have a nice day.  *
