 Q-Chem 5.4, Q-Chem, Inc., Pleasanton, CA (2021)
 Q-Chem 5.4.1 for Intel X86 EM64T Linux

User input:
--------------------------------------------------------------
$molecule
0 2
C         2.5538333358   -0.2642609420   -0.3671721806
O         1.6316300896    0.6216314436   -0.9233350552
C         3.0620789606    0.3811369657    0.9301258927
O         2.0762214555    0.4240509636    1.8936722693
C         3.6915815799    1.7519652094    0.8151355061
C         4.9033557376    1.8321052106   -0.0972425296
O         4.4005058080    1.8709237346   -1.4350548529
O         5.3755052713    1.3223005795   -2.3212959808
C         5.7258565586    3.0839960614    0.2036783852
O         6.3447309196    2.8518093783    1.4480592892
O         6.6716698318    3.3618852110   -0.8001995030
H         5.0781214402    0.4028368192   -2.3995466351
H         1.4350601087    0.3260166158   -1.8201718901
H         3.9815104090    2.0560003960    1.8195674726
H         2.9281414977    2.4486776249    0.4700119624
H         5.5476244089    0.9568421861    0.0076924012
H         5.0826240446    3.9640240330    0.2483720267
H         6.6728763945    3.6929940439    1.7854577665
H         7.1852975661    2.5615944215   -0.9692863117
O         1.8785201587   -1.4649569288   -0.0472657441
O         4.1101257744   -0.5981607039    1.3495888858
O         4.5958472048   -0.3197465250    2.5224155925
H         1.5436637778   -0.3825065557    1.8120657603
H         3.3856621556   -0.4717088820   -1.0413570840
H         2.5110289106   -2.1931114608   -0.0570490435
$end

$rem
BASIS = 6-311++G(2df,2p)
GUI = 2
JOB_TYPE = Frequency
METHOD = wB97M-V
SOLVENT_METHOD = SMD
SCF_ALGORITHM = DIIS_GDM
MAX_SCF_CYCLES = 400
SCF_CONVERGENCE = 7
THRESH = 12
$end
--------------------------------------------------------------

   21    -874.0402295015      7.69e-08  Convergence criterion met
 Total energy in the final basis set =     -874.0335522434
   18    -874.0402231215      8.07e-08  Convergence criterion met
 Total energy in the final basis set =     -874.0335510578
   18    -874.0402337174      8.10e-08  Convergence criterion met
 Total energy in the final basis set =     -874.0335511278
   18    -874.0402318646      8.10e-08  Convergence criterion met
 Total energy in the final basis set =     -874.0335513628
   18    -874.0402255378      8.10e-08  Convergence criterion met
 Total energy in the final basis set =     -874.0335512406
   18    -874.0402253691      8.09e-08  Convergence criterion met
 Total energy in the final basis set =     -874.0335511574
   18    -874.0402316129      8.10e-08  Convergence criterion met
 Total energy in the final basis set =     -874.0335512686
   18    -874.0402339432      8.04e-08  Convergence criterion met
 Total energy in the final basis set =     -874.0335519904
   18    -874.0402287442      8.11e-08  Convergence criterion met
 Total energy in the final basis set =     -874.0335518857
   18    -874.0402289975      8.09e-08  Convergence criterion met
 Total energy in the final basis set =     -874.0335517583
   18    -874.0402291336      8.10e-08  Convergence criterion met
 Total energy in the final basis set =     -874.0335518560
   18    -874.0402279815      8.07e-08  Convergence criterion met
 Total energy in the final basis set =     -874.0335516925
   18    -874.0402298463      8.11e-08  Convergence criterion met
 Total energy in the final basis set =     -874.0335516196
   18    -874.0402294197      8.06e-08  Convergence criterion met
 Total energy in the final basis set =     -874.0335522235
   18    -874.0402295638      8.14e-08  Convergence criterion met
 Total energy in the final basis set =     -874.0335522433

                    Orbital Energies (a.u.)
 --------------------------------------------------------------

 Alpha MOs
 -- Occupied --
-19.4614 -19.4215 -19.4031 -19.3956 -19.3635 -19.3545 -19.3534 -19.3463
-19.3445 -10.4721 -10.4589 -10.4456 -10.4055 -10.3538  -1.3490  -1.2708
 -1.2223  -1.2016  -1.1875  -1.1450  -1.1351  -1.0552  -1.0134  -0.9128
 -0.8513  -0.8100  -0.7538  -0.7195  -0.6890  -0.6795  -0.6657  -0.6595
 -0.6500  -0.6387  -0.6226  -0.6098  -0.5910  -0.5858  -0.5684  -0.5505
 -0.5401  -0.5321  -0.5286  -0.5032  -0.4846  -0.4721  -0.4703  -0.4590
 -0.4548  -0.4342  -0.4303  -0.4177  -0.4117  -0.4044  -0.3994  -0.3948
 -0.3846

 Beta MOs
 -- Occupied --
-19.4513 -19.4031 -19.4025 -19.3956 -19.3634 -19.3545 -19.3534 -19.3463
-19.3445 -10.4724 -10.4589 -10.4456 -10.4055 -10.3536  -1.3234  -1.2708
 -1.2212  -1.2016  -1.1864  -1.1449  -1.1351  -1.0550  -0.9849  -0.9068
 -0.8466  -0.8093  -0.7528  -0.7144  -0.6860  -0.6766  -0.6636  -0.6566
 -0.6418  -0.6338  -0.6181  -0.5856  -0.5777  -0.5754  -0.5635  -0.5493
 -0.5351  -0.5283  -0.5147  -0.4944  -0.4828  -0.4715  -0.4683  -0.4575
 -0.4525  -0.4340  -0.4288  -0.4172  -0.4101  -0.3998  -0.3854  -0.3805

          Ground-State Mulliken Net Atomic Charges

     Atom                 Charge (a.u.)    Spin (a.u.)
  --------------------------------------------------------
      1 C                    -0.029695      -0.000746
      2 O                    -0.412177      -0.000193
      3 C                     0.004870      -0.000908
      4 O                    -0.402675       0.001928
      5 C                    -0.618504       0.006852
      6 C                    -0.060179       0.003655
      7 O                    -0.070247       0.000175
      8 O                    -0.336835      -0.000142
      9 C                    -0.358566      -0.000873
     10 O                    -0.393777       0.000411
     11 O                    -0.462592       0.000100
     12 H                     0.346780       0.000016
     13 H                     0.344712      -0.000154
     14 H                     0.292689       0.001427
     15 H                     0.316405      -0.000708
     16 H                     0.348173       0.000758
     17 H                     0.291858      -0.000065
     18 H                     0.338514      -0.000073
     19 H                     0.348004      -0.000024
     20 O                    -0.456588       0.003860
     21 O                     0.092886       0.304673
     22 O                    -0.187461       0.680725
     23 H                     0.355591       0.000047
     24 H                     0.364141      -0.000051
     25 H                     0.344673      -0.000692
  --------------------------------------------------------
  Sum of atomic charges =     0.000000

                    Cartesian Multipole Moments
 -----------------------------------------------------------------
    Charge (ESU x 10^10)
                 0.0000
    Dipole Moment (Debye)
         X       0.1387      Y      -3.6682      Z      -3.1355
       Tot       4.8277
    Quadrupole Moments (Debye-Ang)
        XX     -87.2402     XY     -13.1730     YY     -79.5715
        XZ      -8.2292     YZ      15.1320     ZZ     -90.4039

             Standard Nuclear Orientation (Angstroms)
    I     Atom           X                Y                Z
 ----------------------------------------------------------------
    1      C       2.5538333358    -0.2642609420    -0.3671721806
    2      O       1.6316300896     0.6216314436    -0.9233350552
    3      C       3.0620789606     0.3811369657     0.9301258927
    4      O       2.0762214555     0.4240509636     1.8936722693
    5      C       3.6915815799     1.7519652094     0.8151355061
    6      C       4.9033557376     1.8321052106    -0.0972425296
    7      O       4.4005058080     1.8709237346    -1.4350548529
    8      O       5.3755052713     1.3223005795    -2.3212959808
    9      C       5.7258565586     3.0839960614     0.2036783852
   10      O       6.3447309196     2.8518093783     1.4480592892
   11      O       6.6716698318     3.3618852110    -0.8001995030
   12      H       5.0781214402     0.4028368192    -2.3995466351
   13      H       1.4350601087     0.3260166158    -1.8201718901
   14      H       3.9815104090     2.0560003960     1.8195674726
   15      H       2.9281414977     2.4486776249     0.4700119624
   16      H       5.5476244089     0.9568421861     0.0076924012
   17      H       5.0826240446     3.9640240330     0.2483720267
   18      H       6.6728763945     3.6929940439     1.7854577665
   19      H       7.1852975661     2.5615944215    -0.9692863117
   20      O       1.8785201587    -1.4649569288    -0.0472657441
   21      O       4.1101257744    -0.5981607039     1.3495888858
   22      O       4.5958472048    -0.3197465250     2.5224155925
   23      H       1.5436637778    -0.3825065557     1.8120657603
   24      H       3.3856621556    -0.4717088820    -1.0413570840
   25      H       2.5110289106    -2.1931114608    -0.0570490435
 ----------------------------------------------------------------

 Frequency:        37.77                  61.49                  78.77
 Force Cnst:      0.0064                 0.0168                 0.0256
 Red. Mass:       7.6321                 7.5351                 6.9898
 IR Intens:        2.073                  2.730                  4.569
 Frequency:       107.50                 117.17                 142.85
 Force Cnst:      0.0425                 0.0508                 0.0855
 Red. Mass:       6.2438                 6.2740                 7.1150
 IR Intens:        8.379                  5.461                  6.524
 Frequency:       163.62                 171.74                 212.73
 Force Cnst:      0.1025                 0.0853                 0.1082
 Red. Mass:       6.5006                 4.9089                 4.0573
 IR Intens:        5.532                  1.717                 47.328
 Frequency:       228.88                 236.10                 263.08
 Force Cnst:      0.0368                 0.1653                 0.0517
 Red. Mass:       1.1923                 5.0328                 1.2675
 IR Intens:      136.437                 14.594                195.315
 Frequency:       277.27                 292.89                 306.39
 Force Cnst:      0.0593                 0.2719                 0.0935
 Red. Mass:       1.3084                 5.3787                 1.6909
 IR Intens:      106.360                 63.821                 90.476
 Frequency:       333.29                 339.72                 343.76
 Force Cnst:      0.2164                 0.1418                 0.1713
 Red. Mass:       3.3060                 2.0849                 2.4610
 IR Intens:       17.355                 50.158                 85.836
 Frequency:       376.15                 385.99                 414.77
 Force Cnst:      0.1362                 0.2713                 0.6110
 Red. Mass:       1.6332                 3.0910                 6.0280
 IR Intens:      141.813                 73.387                 10.979
 Frequency:       458.72                 475.61                 482.62
 Force Cnst:      0.3933                 0.1768                 0.4620
 Red. Mass:       3.1721                 1.3264                 3.3663
 IR Intens:       80.868                105.555                189.068
 Frequency:       563.60                 600.79                 619.06
 Force Cnst:      0.9746                 1.1681                 0.9654
 Red. Mass:       5.2075                 5.4928                 4.2754
 IR Intens:       49.729                 47.381                 86.228
 Frequency:       627.19                 718.34                 789.38
 Force Cnst:      0.9567                 1.6193                 1.2455
 Red. Mass:       4.1277                 5.3262                 3.3926
 IR Intens:       24.657                 20.347                 68.142
 Frequency:       821.30                 910.52                1018.24
 Force Cnst:      1.3454                 1.7194                 4.3657
 Red. Mass:       3.3853                 3.5200                 7.1467
 IR Intens:       54.423                109.321                 19.935
 Frequency:      1030.43                1076.61                1102.67
 Force Cnst:      1.6561                 2.0485                 2.4325
 Red. Mass:       2.6473                 2.9996                 3.3955
 IR Intens:      140.996                141.967                 88.686
 Frequency:      1109.42                1124.26                1190.01
 Force Cnst:      1.5844                 1.5339                 1.8661
 Red. Mass:       2.1848                 2.0598                 2.2365
 IR Intens:      130.168                183.253                 90.533
 Frequency:      1199.55                1206.95                1219.98
 Force Cnst:      1.6717                 2.5630                 1.2513
 Red. Mass:       1.9719                 2.9863                 1.4269
 IR Intens:      139.567                186.689                 35.281
 Frequency:      1238.02                1253.40                1274.13
 Force Cnst:      1.2470                 1.2842                 2.7938
 Red. Mass:       1.3809                 1.3874                 2.9209
 IR Intens:       75.656                 52.933                 29.890
 Frequency:      1287.30                1299.28                1303.75
 Force Cnst:      1.7064                 2.2457                 2.2825
 Red. Mass:       1.7477                 2.2579                 2.2792
 IR Intens:      202.629                218.242                 40.351
 Frequency:      1344.27                1366.09                1374.53
 Force Cnst:      1.5827                 1.5274                 1.6554
 Red. Mass:       1.4866                 1.3891                 1.4871
 IR Intens:       37.937                 87.689                 99.407
 Frequency:      1405.53                1421.76                1437.75
 Force Cnst:      1.7533                 1.7446                 1.6167
 Red. Mass:       1.5063                 1.4649                 1.3274
 IR Intens:       36.634                 63.476                 71.595
 Frequency:      1437.85                1448.18                1479.56
 Force Cnst:      1.3629                 1.4764                 2.2805
 Red. Mass:       1.1189                 1.1949                 1.7681
 IR Intens:       16.159                 38.482                 87.048
 Frequency:      1483.36                3079.22                3092.57
 Force Cnst:      2.5012                 6.0590                 6.0941
 Red. Mass:       1.9293                 1.0846                 1.0815
 IR Intens:       14.730                  1.644                 33.873
 Frequency:      3097.75                3102.05                3144.31
 Force Cnst:      6.0361                 6.1591                 6.4211
 Red. Mass:       1.0676                 1.0863                 1.1023
 IR Intens:       30.585                 41.775                  1.590
 Frequency:      3729.27                3748.81                3795.29
 Force Cnst:      8.7272                 8.8461                 9.0471
 Red. Mass:       1.0651                 1.0684                 1.0660
 IR Intens:      203.244                111.730                114.467
 Frequency:      3816.54                3819.67                3826.42
 Force Cnst:      9.1523                 9.1700                 9.2014
 Red. Mass:       1.0665                 1.0668                 1.0666
 IR Intens:      167.430                157.490                137.979

 STANDARD THERMODYNAMIC QUANTITIES AT   298.15 K  AND     1.00 ATM

   This Molecule has  0 Imaginary Frequencies
   Zero point vibrational energy:      119.146 kcal/mol

   Atom    1 Element C  Has Mass   12.00000
   Atom    2 Element O  Has Mass   15.99491
   Atom    3 Element C  Has Mass   12.00000
   Atom    4 Element O  Has Mass   15.99491
   Atom    5 Element C  Has Mass   12.00000
   Atom    6 Element C  Has Mass   12.00000
   Atom    7 Element O  Has Mass   15.99491
   Atom    8 Element O  Has Mass   15.99491
   Atom    9 Element C  Has Mass   12.00000
   Atom   10 Element O  Has Mass   15.99491
   Atom   11 Element O  Has Mass   15.99491
   Atom   12 Element H  Has Mass    1.00783
   Atom   13 Element H  Has Mass    1.00783
   Atom   14 Element H  Has Mass    1.00783
   Atom   15 Element H  Has Mass    1.00783
   Atom   16 Element H  Has Mass    1.00783
   Atom   17 Element H  Has Mass    1.00783
   Atom   18 Element H  Has Mass    1.00783
   Atom   19 Element H  Has Mass    1.00783
   Atom   20 Element O  Has Mass   15.99491
   Atom   21 Element O  Has Mass   15.99491
   Atom   22 Element O  Has Mass   15.99491
   Atom   23 Element H  Has Mass    1.00783
   Atom   24 Element H  Has Mass    1.00783
   Atom   25 Element H  Has Mass    1.00783
   Molecular Mass:   215.040320 amu
   Principal axes and moments of inertia in amu*Bohr^2:
                             1           2           3
    Eigenvalues --     1819.88405  3748.54242  4700.12676
          X               0.74053     0.25510    -0.62172
          Y               0.64675    -0.01923     0.76246
          Z              -0.18255     0.96672     0.17922
   Rotational Symmetry Number is   1
   The Molecule is an Asymmetric Top
   Translational Enthalpy:        0.889 kcal/mol
   Rotational Enthalpy:           0.889 kcal/mol
   Vibrational Enthalpy:        127.434 kcal/mol
   gas constant (RT):             0.592 kcal/mol
   Translational Entropy:        42.000  cal/mol.K
   Rotational Entropy:           31.839  cal/mol.K
   Vibrational Entropy:          51.992  cal/mol.K

   Total Enthalpy:              129.804 kcal/mol
   Total Entropy:               125.831  cal/mol.K
 Total job time:  63603.53s(wall), 894005.10s(cpu)
        *  Thank you very much for using Q-Chem.  Have a nice day.  *
