 Q-Chem 5.4, Q-Chem, Inc., Pleasanton, CA (2021)
 Q-Chem 5.4.1 for Intel X86 EM64T Linux

User input:
--------------------------------------------------------------
$molecule
0 2
C         2.5409564419   -0.2511675960   -0.3837335790
O         1.6515150325    0.6772307099   -0.9251000210
C         3.0726553026    0.3617393289    0.9225358353
O         2.0890607984    0.3698751711    1.8919056686
C         3.7030194325    1.7376544219    0.8433039936
C         4.9099532542    1.8328849259   -0.0792473840
O         4.4015030739    1.8341941050   -1.4182417393
O         5.4179681655    1.3211705759   -2.2918076034
C         5.7137876166    3.1067998432    0.1867988426
O         6.3231708473    2.9156517888    1.4441856548
O         6.6574361902    3.3671415135   -0.8243163074
H         5.1656833765    0.3784191398   -2.3340221365
H         1.4022744008    0.3534489198   -1.8072696585
H         4.0092065080    2.0116970031    1.8569209492
H         2.9341969956    2.4481446972    0.5241417375
H         5.5727448222    0.9681105330    0.0430283434
H         5.0534819389    3.9814645891    0.1953135818
H         6.6885984588    3.7724802949    1.7199776364
H         7.1677520466    2.5498659659   -0.9608128550
O         1.8105071679   -1.4219565637   -0.0590848655
O         4.1247918001   -0.6306881414    1.3051203602
O         4.6021061419   -0.3782717009    2.4977742484
H         1.5559769942   -0.4363728845    1.7308571161
H         3.3642697271   -0.4936984846   -1.0652954783
H         2.4404568656   -2.1594792559    0.0139340598
$end

$rem
BASIS = 6-311++G(2df,2p)
GUI = 2
JOB_TYPE = Optimization
METHOD = wB97M-V
SCF_ALGORITHM = DIIS_GDM
MAX_SCF_CYCLES = 400
GEOM_OPT_MAX_CYCLES = 150
SCF_CONVERGENCE = 7
THRESH = 12
Solvent_method = SMD
$end
--------------------------------------------------------------

   22    -874.0389800526      4.50e-08  Convergence criterion met
 Total energy in the final basis set =     -874.0323966403
   21    -874.0399341530      2.78e-08  Convergence criterion met
 Total energy in the final basis set =     -874.0333019295
   20    -874.0399391664      9.21e-08  Convergence criterion met
 Total energy in the final basis set =     -874.0332368833
   19    -874.0401590907      9.80e-08  Convergence criterion met
 Total energy in the final basis set =     -874.0334988136
   18    -874.0401768271      9.94e-08  Convergence criterion met
 Total energy in the final basis set =     -874.0335111566
   19    -874.0402045625      7.51e-08  Convergence criterion met
 Total energy in the final basis set =     -874.0335365419
   18    -874.0402116309      8.65e-08  Convergence criterion met
 Total energy in the final basis set =     -874.0335420997
   19    -874.0402247933      5.99e-08  Convergence criterion met
 Total energy in the final basis set =     -874.0335494161
   19    -874.0402270438      9.39e-08  Convergence criterion met
 Total energy in the final basis set =     -874.0335515328

             Standard Nuclear Orientation (Angstroms)
    I     Atom           X                Y                Z
 ----------------------------------------------------------------
    1      C       2.5538333358    -0.2642609420    -0.3671721806
    2      O       1.6316300896     0.6216314436    -0.9233350552
    3      C       3.0620789606     0.3811369657     0.9301258927
    4      O       2.0762214555     0.4240509636     1.8936722693
    5      C       3.6915815799     1.7519652094     0.8151355061
    6      C       4.9033557376     1.8321052106    -0.0972425296
    7      O       4.4005058080     1.8709237346    -1.4350548529
    8      O       5.3755052713     1.3223005795    -2.3212959808
    9      C       5.7258565586     3.0839960614     0.2036783852
   10      O       6.3447309196     2.8518093783     1.4480592892
   11      O       6.6716698318     3.3618852110    -0.8001995030
   12      H       5.0781214402     0.4028368192    -2.3995466351
   13      H       1.4350601087     0.3260166158    -1.8201718901
   14      H       3.9815104090     2.0560003960     1.8195674726
   15      H       2.9281414977     2.4486776249     0.4700119624
   16      H       5.5476244089     0.9568421861     0.0076924012
   17      H       5.0826240446     3.9640240330     0.2483720267
   18      H       6.6728763945     3.6929940439     1.7854577665
   19      H       7.1852975661     2.5615944215    -0.9692863117
   20      O       1.8785201587    -1.4649569288    -0.0472657441
   21      O       4.1101257744    -0.5981607039     1.3495888858
   22      O       4.5958472048    -0.3197465250     2.5224155925
   23      H       1.5436637778    -0.3825065557     1.8120657603
   24      H       3.3856621556    -0.4717088820    -1.0413570840
   25      H       2.5110289106    -2.1931114608    -0.0570490435
 ----------------------------------------------------------------

   20    -874.0402295006      6.14e-08  Convergence criterion met
 Total energy in the final basis set =     -874.0335522425
 Final energy is   -874.033552242469
 **  OPTIMIZATION CONVERGED  **

                    Orbital Energies (a.u.)
 --------------------------------------------------------------

 Alpha MOs
 -- Occupied --
-19.4614 -19.4215 -19.4031 -19.3956 -19.3635 -19.3545 -19.3534 -19.3463
-19.3445 -10.4721 -10.4589 -10.4456 -10.4055 -10.3538  -1.3490  -1.2708
 -1.2223  -1.2016  -1.1875  -1.1450  -1.1351  -1.0552  -1.0134  -0.9128
 -0.8513  -0.8100  -0.7538  -0.7195  -0.6890  -0.6795  -0.6657  -0.6595
 -0.6500  -0.6387  -0.6226  -0.6098  -0.5910  -0.5858  -0.5684  -0.5505
 -0.5401  -0.5321  -0.5286  -0.5032  -0.4845  -0.4721  -0.4703  -0.4591
 -0.4548  -0.4342  -0.4303  -0.4177  -0.4117  -0.4044  -0.3994  -0.3948
 -0.3846

 Beta MOs
 -- Occupied --
-19.4513 -19.4031 -19.4025 -19.3956 -19.3634 -19.3545 -19.3534 -19.3463
-19.3445 -10.4724 -10.4589 -10.4456 -10.4055 -10.3536  -1.3234  -1.2708
 -1.2212  -1.2016  -1.1864  -1.1449  -1.1351  -1.0550  -0.9849  -0.9068
 -0.8466  -0.8093  -0.7528  -0.7144  -0.6860  -0.6766  -0.6637  -0.6566
 -0.6418  -0.6338  -0.6181  -0.5856  -0.5777  -0.5754  -0.5635  -0.5493
 -0.5351  -0.5283  -0.5147  -0.4944  -0.4827  -0.4715  -0.4683  -0.4575
 -0.4525  -0.4340  -0.4288  -0.4172  -0.4101  -0.3998  -0.3854  -0.3805

          Ground-State Mulliken Net Atomic Charges

     Atom                 Charge (a.u.)    Spin (a.u.)
  --------------------------------------------------------
      1 C                    -0.029707      -0.000753
      2 O                    -0.412154      -0.000193
      3 C                     0.004847      -0.000897
      4 O                    -0.402668       0.001927
      5 C                    -0.618482       0.006851
      6 C                    -0.060219       0.003657
      7 O                    -0.070252       0.000175
      8 O                    -0.336832      -0.000142
      9 C                    -0.358555      -0.000874
     10 O                    -0.393775       0.000411
     11 O                    -0.462591       0.000100
     12 H                     0.346784       0.000016
     13 H                     0.344713      -0.000154
     14 H                     0.292692       0.001427
     15 H                     0.316401      -0.000708
     16 H                     0.348173       0.000758
     17 H                     0.291859      -0.000065
     18 H                     0.338514      -0.000073
     19 H                     0.348004      -0.000024
     20 O                    -0.456568       0.003855
     21 O                     0.092879       0.304672
     22 O                    -0.187452       0.680727
     23 H                     0.355590       0.000047
     24 H                     0.364146      -0.000051
     25 H                     0.344654      -0.000689
  --------------------------------------------------------
  Sum of atomic charges =    -0.000000

                    Cartesian Multipole Moments
 -----------------------------------------------------------------
    Charge (ESU x 10^10)
                -0.0000
    Dipole Moment (Debye)
         X       0.1388      Y      -3.6682      Z      -3.1335
       Tot       4.8263
    Quadrupole Moments (Debye-Ang)
        XX     -87.2400     XY     -13.1731     YY     -79.5715
        XZ      -8.2233     YZ      15.1266     ZZ     -90.4040

 Total job time:  4282.62s(wall), 60228.06s(cpu)
        *  Thank you very much for using Q-Chem.  Have a nice day.  *
