 Q-Chem 5.4, Q-Chem, Inc., Pleasanton, CA (2021)
 Q-Chem 5.4.1 for Intel X86 EM64T Linux

User input:
--------------------------------------------------------------
$molecule
0 2
H         0.6135298090    1.5053337005    1.9318278117
C         0.1015960107    1.4494939929    0.9811517894
C        -1.2882840998    1.5877843034    0.9313026822
H        -1.8423944469    1.7594740850    1.8439901262
C        -1.9675492913    1.4879736587   -0.2798451500
H        -3.0451492967    1.5738343491   -0.3033884476
C        -1.2638190258    1.2666300816   -1.4473329736
H        -1.7811367084    1.1718337996   -2.3923417805
C         0.1452643752    1.1924855645   -1.4205684830
H         0.6768378492    0.8555113243   -2.2973087516
C         0.8136113657    1.2333105429   -0.1763311701
H         1.8883997804    1.1181160216   -0.1492592103
O         0.4996649382    3.1777941893   -1.9769465298
H        -0.2079745594    3.2006939866   -2.6379585132
$end

$rem
BASIS = 6-311++G(2df,2p)
GUI = 2
JOB_TYPE = Frequency
METHOD = wB97M-V
SOLVENT_METHOD = SMD
SCF_ALGORITHM = DIIS_GDM
MAX_SCF_CYCLES = 400
SCF_CONVERGENCE = 7
THRESH = 12
$end

--------------------------------------------------------------

   24    -307.9651122762      5.24e-08  Convergence criterion met
 Total energy in the final basis set =     -307.9605497185
   21    -307.9651122619      6.99e-08  Convergence criterion met
 Total energy in the final basis set =     -307.9605495184
   21    -307.9651118439      6.99e-08  Convergence criterion met
 Total energy in the final basis set =     -307.9605494712
   21    -307.9651122305      6.99e-08  Convergence criterion met
 Total energy in the final basis set =     -307.9605496524
   21    -307.9651122198      6.98e-08  Convergence criterion met
 Total energy in the final basis set =     -307.9605496822
   21    -307.9651120877      7.00e-08  Convergence criterion met
 Total energy in the final basis set =     -307.9605491848
   21    -307.9651114222      6.98e-08  Convergence criterion met
 Total energy in the final basis set =     -307.9605492077
   21    -307.9651117349      7.08e-08  Convergence criterion met
 Frequency:      -265.04                 121.60                 141.65
 Force Cnst:      0.4663                 0.0630                 0.0518
 Red. Mass:      11.2674                 7.2304                 4.3817
 IR Intens:      160.644                 16.738                  6.760
 Frequency:       168.36                 382.67                 401.78
 Force Cnst:      0.0179                 0.2699                 0.2674
 Red. Mass:       1.0716                 3.1286                 2.8112
 IR Intens:      161.767                 22.482                  0.405
 Frequency:       601.61                 603.98                 667.23
 Force Cnst:      1.3074                 1.2997                 0.5055
 Red. Mass:       6.1311                 6.0469                 1.9273
 IR Intens:        1.061                 16.303                 94.378
 Frequency:       733.42                 756.72                 858.49
 Force Cnst:      0.4609                 0.3538                 0.5497
 Red. Mass:       1.4544                 1.0487                 1.2658
 IR Intens:      102.378                114.431                  0.245
 Frequency:       910.24                 979.52                1008.40
 Force Cnst:      0.5886                 1.2460                 1.8120
 Red. Mass:       1.2058                 2.2041                 3.0244
 IR Intens:       98.470                150.826                  6.255
 Frequency:      1014.60                1018.96                1039.68
 Force Cnst:      0.8573                 1.5394                 0.8791
 Red. Mass:       1.4135                 2.5165                 1.3804
 IR Intens:        0.990                  9.291                 13.253
 Frequency:      1045.49                1063.57                1153.16
 Force Cnst:      1.1517                 1.0964                 0.8668
 Red. Mass:       1.7883                 1.6451                 1.1064
 IR Intens:        4.978                 15.694                  2.948
 Frequency:      1172.23                1181.58                1319.65
 Force Cnst:      0.9334                 0.9332                 5.5078
 Red. Mass:       1.1528                 1.1344                 5.3679
 IR Intens:        2.586                 21.101                 18.609
 Frequency:      1373.53                1489.91                1508.48
 Force Cnst:      1.3899                 2.5261                 2.8748
 Red. Mass:       1.2505                 1.9315                 2.1443
 IR Intens:        0.014                 36.889                 27.973
 Frequency:      1607.13                1626.98                3193.69
 Force Cnst:      7.4512                 8.1982                 6.5272
 Red. Mass:       4.8963                 5.2566                 1.0862
 IR Intens:        7.034                272.259                  0.189
 Frequency:      3200.30                3204.35                3213.82
 Force Cnst:      6.5670                 6.5948                 6.6707
 Red. Mass:       1.0883                 1.0901                 1.0962
 IR Intens:        0.355                  9.081                 28.720
 Frequency:      3217.58                3226.45                3778.18
 Force Cnst:      6.6877                 6.7224                 8.9784
 Red. Mass:       1.0964                 1.0960                 1.0675
 IR Intens:       17.061                 20.676                245.957

 STANDARD THERMODYNAMIC QUANTITIES AT   298.15 K  AND     1.00 ATM

   This Molecule has  1 Imaginary Frequencies
   Zero point vibrational energy:       70.028 kcal/mol

   Atom    1 Element H  Has Mass    1.00783
   Atom    2 Element C  Has Mass   12.00000
   Atom    3 Element C  Has Mass   12.00000
   Atom    4 Element H  Has Mass    1.00783
   Atom    5 Element C  Has Mass   12.00000
   Atom    6 Element H  Has Mass    1.00783
   Atom    7 Element C  Has Mass   12.00000
   Atom    8 Element H  Has Mass    1.00783
   Atom    9 Element C  Has Mass   12.00000
   Atom   10 Element H  Has Mass    1.00783
   Atom   11 Element C  Has Mass   12.00000
   Atom   12 Element H  Has Mass    1.00783
   Atom   13 Element O  Has Mass   15.99491
   Atom   14 Element H  Has Mass    1.00783
   Molecular Mass:    95.049720 amu
   Principal axes and moments of inertia in amu*Bohr^2:
                             1           2           3
    Eigenvalues --      444.74373   688.75290   888.66848
          X              -0.46249     0.87469    -0.14497
          Y              -0.33189    -0.01917     0.94312
          Z               0.82216     0.48429     0.29917
   Rotational Symmetry Number is   1
   The Molecule is an Asymmetric Top
   Translational Enthalpy:        0.889 kcal/mol
   Rotational Enthalpy:           0.889 kcal/mol
   Vibrational Enthalpy:         72.334 kcal/mol
   gas constant (RT):             0.592 kcal/mol
   Translational Entropy:        39.567  cal/mol.K
   Rotational Entropy:           27.101  cal/mol.K
   Vibrational Entropy:          13.166  cal/mol.K

   Total Enthalpy:               74.704 kcal/mol
   Total Entropy:                79.833  cal/mol.K
 Total job time:  9693.19s(wall), 140000.29s(cpu)
        *  Thank you very much for using Q-Chem.  Have a nice day.  *
 Q-Chem 5.4, Q-Chem, Inc., Pleasanton, CA (2021)
 Q-Chem 5.4.1 for Intel X86 EM64T Linux

User input:
--------------------------------------------------------------

$molecule
read
$end

$rem
JOBTYPE            rpath
SCF_GUESS          read
RPATH_MAX_CYCLES   30
BASIS = 6-311++G(2df,2p)
METHOD = wB97M-V
SOLVENT_METHOD = SMD
SCF_ALGORITHM = DIIS_GDM
SCF_CONVERGENCE = 7
THRESH = 12
$end
--------------------------------------------------------------

 Total energy in the final basis set =     -307.9831069553
   16    -307.9881683325      7.35e-08  Convergence criterion met
 Total energy in the final basis set =     -307.9835272687
   15    -307.9879659352      9.63e-08  Convergence criterion met
 Total energy in the final basis set =     -307.9832928430
   17    -307.9882481570      8.79e-08  Convergence criterion met
 Total energy in the final basis set =     -307.9835968494
   17    -307.9870488167      4.34e-08  Convergence criterion met
 Total energy in the final basis set =     -307.9823871991
   18    -307.9883466462      2.24e-08  Convergence criterion met
 Total energy in the final basis set =     -307.9836939985
   17    -307.9883076153      6.86e-08  Convergence criterion met
 Total energy in the final basis set =     -307.9836556228
   17    -307.9883643405      9.10e-08  Convergence criterion met
 Total energy in the final basis set =     -307.9837119797

                    Orbital Energies (a.u.)
 --------------------------------------------------------------

 Alpha MOs
 -- Occupied --
-19.3371 -10.3971 -10.3543 -10.3483 -10.3478 -10.3420 -10.3419  -1.1508
 -0.9737  -0.8770  -0.8605  -0.7384  -0.7159  -0.6344  -0.6189  -0.5752
 -0.5607  -0.5300  -0.5219  -0.4967  -0.4639  -0.4536  -0.4217  -0.3925
 -0.3629  -0.2775

 Beta MOs
 -- Occupied --
-19.3347 -10.3978 -10.3470 -10.3446 -10.3445 -10.3428 -10.3424  -1.1454
 -0.9668  -0.8719  -0.8502  -0.7295  -0.7106  -0.6311  -0.6123  -0.5699
 -0.5537  -0.5269  -0.5183  -0.4891  -0.4593  -0.4268  -0.4171  -0.3885
 -0.3458

          Ground-State Mulliken Net Atomic Charges

     Atom                 Charge (a.u.)    Spin (a.u.)
  --------------------------------------------------------
      1 H                     0.282464       0.005021
      2 C                    -0.273572      -0.154711
      3 C                    -0.255957       0.513467
      4 H                     0.291743      -0.008840
      5 C                    -0.263060      -0.156768
      6 H                     0.281772       0.005111
      7 C                    -0.181065       0.390390
      8 H                     0.297891      -0.007841
      9 C                    -0.459540      -0.028170
     10 H                     0.209032       0.018822
     11 C                    -0.122029       0.382071
     12 H                     0.289525      -0.007036
     13 O                    -0.423716       0.043472
     14 H                     0.326512       0.005011
  --------------------------------------------------------
  Sum of atomic charges =     0.000000

                    Cartesian Multipole Moments
 -----------------------------------------------------------------
    Charge (ESU x 10^10)
                 0.0000
    Dipole Moment (Debye)
         X      -1.8493      Y      -1.4010      Z      -0.5756
       Tot       2.3904
    Quadrupole Moments (Debye-Ang)
        XX     -38.5570     XY      -6.5507     YY     -52.0442
        XZ       3.5506     YZ       0.4121     ZZ     -33.3216

             Standard Nuclear Orientation (Angstroms)
    I     Atom           X                Y                Z
 ----------------------------------------------------------------
    1      H       0.6135298090     1.5053337005     1.9318278117
    2      C       0.1015960107     1.4494939929     0.9811517894
    3      C      -1.2882840998     1.5877843034     0.9313026822
    4      H      -1.8423944469     1.7594740850     1.8439901262
    5      C      -1.9675492913     1.4879736587    -0.2798451500
    6      H      -3.0451492967     1.5738343491    -0.3033884476
    7      C      -1.2638190258     1.2666300816    -1.4473329736
    8      H      -1.7811367084     1.1718337996    -2.3923417805
    9      C       0.1452643752     1.1924855645    -1.4205684830
   10      H       0.6768378492     0.8555113243    -2.2973087516
   11      C       0.8136113657     1.2333105429    -0.1763311701
   12      H       1.8883997804     1.1181160216    -0.1492592103
   13      O       0.4996649382     3.1777941893    -1.9769465298
   14      H      -0.2079745594     3.2006939866    -2.6379585132
 ----------------------------------------------------------------

 Total job time:  4739.47s(wall), 68624.41s(cpu)
        *  Thank you very much for using Q-Chem.  Have a nice day.  *
