 Q-Chem 5.4, Q-Chem, Inc., Pleasanton, CA (2021)
 Q-Chem 5.4.1 for Intel X86 EM64T Linux

User input:
--------------------------------------------------------------
$molecule
0 2
H    0.5975413    1.4150051    1.9989805
C    0.0604941    1.4039422    1.0593498
C   -1.3536991    1.4015264    1.0747727
H   -1.8863849    1.4130136    2.0143839
C   -2.0668690    1.4014879   -0.1463163
H   -3.1491565    1.4159384   -0.1251551
C   -1.4169942    1.3879165   -1.3369196
H   -1.9669269    1.3892305   -2.2698904
C    0.0741557    1.3743427   -1.4357582
H    0.6506069    0.9429269   -2.3353053
C    0.7517461    1.3983753   -0.1075171
H    1.8341846    1.4072255   -0.1125566
O    0.7417469    3.1786111   -2.3771025
H    0.4721517    3.0507275   -3.2939744
$end

$rem
BASIS = 6-311++G(2df,2p)
GUI = 2
JOB_TYPE = Frequency
METHOD = wB97M-V
SCF_ALGORITHM = DIIS_GDM
MAX_SCF_CYCLES = 400
SCF_CONVERGENCE = 6
THRESH = 11
solvent_method = SMD
$end

--------------------------------------------------------------

   21    -307.9445319231      6.01e-07  Convergence criterion met
 Total energy in the final basis set =     -307.9394946058
   19    -307.9445314015      7.28e-07  Convergence criterion met
 Total energy in the final basis set =     -307.9394938879
   19    -307.9445319739      7.40e-07  Convergence criterion met
 Total energy in the final basis set =     -307.9394948519
   19    -307.9445315251      7.29e-07  Convergence criterion met
 Total energy in the final basis set =     -307.9394942035
   19    -307.9445322240      7.33e-07  Convergence criterion met
 Total energy in the final basis set =     -307.9394949105
   19    -307.9445307306      7.25e-07  Convergence criterion met
 Total energy in the final basis set =     -307.9394930697
   19    -307.9445320980      7.45e-07  Convergence criterion met
 Total energy in the final basis set =     -307.9394951223
   19    -307.9444927771      7.06e-07  Convergence criterion met
 Frequency:      -354.19                -285.88                 122.95
 Force Cnst:      0.6938                 0.0533                 0.0445
 Red. Mass:       9.3867                 1.1060                 4.9998
 IR Intens:      380.910                201.962                 13.537
 Frequency:       159.31                 387.65                 439.21
 Force Cnst:      0.0639                 0.2568                 0.3336
 Red. Mass:       4.2720                 2.9000                 2.9352
 IR Intens:        3.220                  0.470                 48.675
 Frequency:       580.71                 592.27                 638.64
 Force Cnst:      1.2863                 0.9286                 0.2881
 Red. Mass:       6.4738                 4.4932                 1.1990
 IR Intens:        1.026                 11.102                 39.964
 Frequency:       663.82                 743.56                 806.43
 Force Cnst:      0.4686                 0.6107                 1.0777
 Red. Mass:       1.8047                 1.8748                 2.8128
 IR Intens:      103.835                118.546                555.207
 Frequency:       841.67                 949.73                 969.06
 Force Cnst:      0.5371                 0.7170                 1.4250
 Red. Mass:       1.2868                 1.3492                 2.5755
 IR Intens:        5.014                 48.370                 21.477
 Frequency:       984.99                1009.70                1024.10
 Force Cnst:      2.4754                 1.7473                 0.8509
 Red. Mass:       4.3304                 2.9089                 1.3770
 IR Intens:       25.871                  6.595                  1.509
 Frequency:      1032.24                1094.99                1130.40
 Force Cnst:      0.8368                 0.8445                 0.9825
 Red. Mass:       1.3330                 1.1955                 1.3050
 IR Intens:        3.163                517.784                  7.882
 Frequency:      1162.70                1200.77                1288.20
 Force Cnst:      0.8874                 0.9469                 1.9765
 Red. Mass:       1.1142                 1.1147                 2.0216
 IR Intens:        0.280                  8.978                  1.563
 Frequency:      1373.01                1440.37                1465.83
 Force Cnst:      1.3945                 1.9467                 3.4554
 Red. Mass:       1.2555                 1.5925                 2.7295
 IR Intens:        0.137                 24.970                 29.883
 Frequency:      1545.41                1630.99                2601.85
 Force Cnst:      3.9630                 8.0685                 4.3449
 Red. Mass:       2.8164                 5.1480                 1.0893
 IR Intens:       11.217                641.812                122.063
 Frequency:      3184.42                3188.32                3201.01
 Force Cnst:      6.4917                 6.5074                 6.6200
 Red. Mass:       1.0866                 1.0865                 1.0966
 IR Intens:        3.671                  1.635                 15.676
 Frequency:      3204.45                3226.26                3834.87
 Force Cnst:      6.6344                 6.7118                 9.2529
 Red. Mass:       1.0966                 1.0944                 1.0679
 IR Intens:       18.743                 25.875                523.452

 STANDARD THERMODYNAMIC QUANTITIES AT   298.15 K  AND     1.00 ATM

   This Molecule has  2 Imaginary Frequencies
   Zero point vibrational energy:       68.219 kcal/mol

   Atom    1 Element H  Has Mass    1.00783
   Atom    2 Element C  Has Mass   12.00000
   Atom    3 Element C  Has Mass   12.00000
   Atom    4 Element H  Has Mass    1.00783
   Atom    5 Element C  Has Mass   12.00000
   Atom    6 Element H  Has Mass    1.00783
   Atom    7 Element C  Has Mass   12.00000
   Atom    8 Element H  Has Mass    1.00783
   Atom    9 Element C  Has Mass   12.00000
   Atom   10 Element H  Has Mass    1.00783
   Atom   11 Element C  Has Mass   12.00000
   Atom   12 Element H  Has Mass    1.00783
   Atom   13 Element O  Has Mass   15.99491
   Atom   14 Element H  Has Mass    1.00783
   Molecular Mass:    95.049720 amu
   Principal axes and moments of inertia in amu*Bohr^2:
                             1           2           3
    Eigenvalues --      402.81814   840.86206  1099.40367
          X              -0.48489     0.85427    -0.18736
          Y              -0.35317     0.00472     0.93555
          Z               0.80010     0.51980     0.29941
   Rotational Symmetry Number is   1
   The Molecule is an Asymmetric Top
   Translational Enthalpy:        0.889 kcal/mol
   Rotational Enthalpy:           0.889 kcal/mol
   Vibrational Enthalpy:         70.168 kcal/mol
   gas constant (RT):             0.592 kcal/mol
   Translational Entropy:        39.567  cal/mol.K
   Rotational Entropy:           27.412  cal/mol.K
   Vibrational Entropy:          10.652  cal/mol.K

   Total Enthalpy:               72.538 kcal/mol
   Total Entropy:                77.630  cal/mol.K
 Total job time:  7986.96s(wall), 113992.04s(cpu)
        *  Thank you very much for using Q-Chem.  Have a nice day.  *
 Q-Chem 5.4, Q-Chem, Inc., Pleasanton, CA (2021)
 Q-Chem 5.4.1 for Intel X86 EM64T Linux

User input:
--------------------------------------------------------------

$rem
JOBTYPE = ts
SCF_GUESS = read
GEOM_OPT_HESSIAN = read
MAX_SCF_CYCLES = 350
GEOM_OPT_DMAX = 60
GEOM_OPT_MAX_CYCLES = 250
METHOD = wB97M-v
BASIS = 6-311++G(2df,2p)
SCF_CONVERGENCE = 7
THRESH = 12
SCF_ALGORITHM = DIIS_GDM
solvent_method = SMD
$end

$molecule
read
$end
--------------------------------------------------------------

   21    -307.9651053463      7.18e-08  Convergence criterion met
 Total energy in the final basis set =     -307.9605198960
   21    -307.9651110390      7.20e-08  Convergence criterion met
 Total energy in the final basis set =     -307.9605295277
   21    -307.9651155533      7.24e-08  Convergence criterion met
 Total energy in the final basis set =     -307.9605383775
   21    -307.9651178618      7.29e-08  Convergence criterion met
 Total energy in the final basis set =     -307.9605458251
   21    -307.9651158939      7.36e-08  Convergence criterion met
 Total energy in the final basis set =     -307.9605502650
   21    -307.9651142017      7.25e-08  Convergence criterion met
 Total energy in the final basis set =     -307.9605503575

             Standard Nuclear Orientation (Angstroms)
    I     Atom           X                Y                Z
 ----------------------------------------------------------------
    1      H       0.6135298090     1.5053337005     1.9318278117
    2      C       0.1015960107     1.4494939929     0.9811517894
    3      C      -1.2882840998     1.5877843034     0.9313026822
    4      H      -1.8423944469     1.7594740850     1.8439901262
    5      C      -1.9675492913     1.4879736587    -0.2798451500
    6      H      -3.0451492967     1.5738343491    -0.3033884476
    7      C      -1.2638190258     1.2666300816    -1.4473329736
    8      H      -1.7811367084     1.1718337996    -2.3923417805
    9      C       0.1452643752     1.1924855645    -1.4205684830
   10      H       0.6768378492     0.8555113243    -2.2973087516
   11      C       0.8136113657     1.2333105429    -0.1763311701
   12      H       1.8883997804     1.1181160216    -0.1492592103
   13      O       0.4996649382     3.1777941893    -1.9769465298
   14      H      -0.2079745594     3.2006939866    -2.6379585132
 ----------------------------------------------------------------

   21    -307.9651122766      6.77e-08  Convergence criterion met
 Total energy in the final basis set =     -307.9605497189
 Final energy is   -307.960549718889
 **  OPTIMIZATION CONVERGED  **

                    Orbital Energies (a.u.)
 --------------------------------------------------------------

 Alpha MOs
 -- Occupied --
-19.3416 -10.3739 -10.3586 -10.3585 -10.3559 -10.3479 -10.3477  -1.0963
 -0.9922  -0.8805  -0.8783  -0.7296  -0.7250  -0.6426  -0.5736  -0.5678
 -0.5494  -0.5315  -0.5303  -0.5138  -0.4527  -0.4452  -0.4438  -0.4153
 -0.3589  -0.3235

 Beta MOs
 -- Occupied --
-19.3242 -10.3738 -10.3556 -10.3555 -10.3533 -10.3493 -10.3492  -1.0559
 -0.9874  -0.8782  -0.8726  -0.7261  -0.7224  -0.6407  -0.5703  -0.5633
 -0.5335  -0.5302  -0.5258  -0.4853  -0.4484  -0.4424  -0.3954  -0.3678
 -0.3510

          Ground-State Mulliken Net Atomic Charges

     Atom                 Charge (a.u.)    Spin (a.u.)
  --------------------------------------------------------
      1 H                     0.289063       0.002291
      2 C                    -0.151102      -0.082942
      3 C                    -0.349430       0.206321
      4 H                     0.284803      -0.004118
      5 C                    -0.150220      -0.090724
      6 H                     0.288878       0.002469
      7 C                    -0.418391       0.198019
      8 H                     0.296153      -0.003807
      9 C                    -0.137980      -0.023995
     10 H                     0.346252       0.010518
     11 C                    -0.369354       0.182638
     12 H                     0.280000      -0.003483
     13 O                    -0.516027       0.615442
     14 H                     0.307356      -0.008629
  --------------------------------------------------------
  Sum of atomic charges =    -0.000000

                    Cartesian Multipole Moments
 -----------------------------------------------------------------
    Charge (ESU x 10^10)
                 0.0000
    Dipole Moment (Debye)
         X      -2.4595      Y      -2.6892      Z       0.4790
       Tot       3.6756
    Quadrupole Moments (Debye-Ang)
        XX     -36.7149     XY      -8.1842     YY     -58.3589
        XZ       4.7888     YZ       4.8719     ZZ     -34.5005

 Total job time:  4198.87s(wall), 60606.70s(cpu)
        *  Thank you very much for using Q-Chem.  Have a nice day.  *
