 Q-Chem 5.4, Q-Chem, Inc., Pleasanton, CA (2021)
 Q-Chem 5.4.1 for Intel X86 EM64T Linux

User input:
--------------------------------------------------------------
$molecule
0 2
C         2.6734104870   -1.0133856500   -1.0766569455
O         1.5952869242   -0.1112565256   -1.1267776265
C         3.5203067944   -0.6271265149    0.1453714037
O         2.7624164900   -0.9461054092    1.2708409184
C         3.9689066851    0.8280209597    0.0743522565
C         5.0310537016    1.2266255546    1.0734320097
O         4.4072660002    1.0787743093    2.4056014887
H         3.2768019537   -0.9475885302   -1.9788978699
H         1.1746574978   -0.1997028163   -1.9896658454
H         3.0976799036    1.4695721825    0.2056325120
H         4.3780789325    1.0238573820   -0.9157464423
H         5.9043191156    0.5811961322    1.0913972435
O         2.2378731862   -2.3458737295   -0.9889839985
H         1.8024608400   -2.4635069195   -0.1338814168
O         4.6443130406   -1.5265058954    0.2403613145
O         5.4489935152   -1.3958181788   -0.9319290447
H         3.1354363428   -0.5189244255    2.0528136427
H         6.2314219733   -0.9317708259   -0.5992041394
O         5.4699525297    2.5308557342    0.9223722115
H         4.7160056750    3.1039201626    0.7289699261
O         5.2983425115    1.1153756037    3.3556713018
$end

$rem
BASIS = 6-311++G(2df,2p)
GUI = 2
JOB_TYPE = Frequency
METHOD = wB97M-V
SOLVENT_METHOD = SMD
SCF_ALGORITHM = DIIS_GDM
MAX_SCF_CYCLES = 400
SCF_CONVERGENCE = 7
THRESH = 12
$end
--------------------------------------------------------------

   22    -759.4955846464      4.03e-08  Convergence criterion met
 Total energy in the final basis set =     -759.4902274285
   19    -759.4955786166      5.86e-08  Convergence criterion met
 Total energy in the final basis set =     -759.4902263242
   19    -759.4955887157      5.83e-08  Convergence criterion met
 Total energy in the final basis set =     -759.4902263036
   19    -759.4955809079      5.89e-08  Convergence criterion met
 Total energy in the final basis set =     -759.4902263923
   19    -759.4955868617      5.79e-08  Convergence criterion met
 Total energy in the final basis set =     -759.4902263780
   19    -759.4955830498      5.86e-08  Convergence criterion met
 Total energy in the final basis set =     -759.4902262493
   19    -759.4955839482      5.84e-08  Convergence criterion met
 Total energy in the final basis set =     -759.4902263061
   19    -759.4955874224      5.85e-08  Convergence criterion met
 Total energy in the final basis set =     -759.4902274205
   19    -759.4955846189      5.85e-08  Convergence criterion met
 Total energy in the final basis set =     -759.4902273398
   19    -759.4955840722      5.88e-08  Convergence criterion met
 Total energy in the final basis set =     -759.4902269417
   19    -759.4955843831      5.82e-08  Convergence criterion met
 Total energy in the final basis set =     -759.4902270776
   19    -759.4955846056      7.09e-08  Convergence criterion met
 Total energy in the final basis set =     -759.4902274141
   19    -759.4955846721      6.06e-08  Convergence criterion met
 Total energy in the final basis set =     -759.4902274276
   19    -759.4955841444      7.34e-08  Convergence criterion met
 Total energy in the final basis set =     -759.4902268541
   19    -759.4955840264      5.39e-08  Convergence criterion met
 Total energy in the final basis set =     -759.4902268806

                    Orbital Energies (a.u.)
 --------------------------------------------------------------

 Alpha MOs
 -- Occupied --
-19.4644 -19.4250 -19.4064 -19.3995 -19.3636 -19.3611 -19.3487 -19.3474
-10.4700 -10.4657 -10.4491 -10.3554  -1.3504  -1.2803  -1.2131  -1.1937
 -1.1842  -1.1383  -1.0419  -1.0163  -0.9074  -0.8402  -0.7772  -0.7419
 -0.6934  -0.6782  -0.6631  -0.6554  -0.6409  -0.6238  -0.6124  -0.5894
 -0.5800  -0.5756  -0.5520  -0.5461  -0.5316  -0.4987  -0.4863  -0.4725
 -0.4655  -0.4590  -0.4384  -0.4337  -0.4160  -0.4092  -0.4044  -0.4002
 -0.3907

 Beta MOs
 -- Occupied --
-19.4548 -19.4064 -19.4056 -19.3995 -19.3633 -19.3610 -19.3487 -19.3474
-10.4700 -10.4660 -10.4491 -10.3554  -1.3248  -1.2803  -1.2131  -1.1914
 -1.1841  -1.1383  -1.0418  -0.9861  -0.9022  -0.8363  -0.7737  -0.7416
 -0.6926  -0.6678  -0.6572  -0.6524  -0.6227  -0.6170  -0.6033  -0.5808
 -0.5757  -0.5678  -0.5442  -0.5319  -0.5166  -0.4957  -0.4830  -0.4702
 -0.4639  -0.4563  -0.4371  -0.4336  -0.4157  -0.4039  -0.3907  -0.3858

          Ground-State Mulliken Net Atomic Charges

     Atom                 Charge (a.u.)    Spin (a.u.)
  --------------------------------------------------------
      1 C                    -0.131414      -0.002937
      2 O                    -0.420942      -0.000101
      3 C                     0.195618       0.003225
      4 O                    -0.399835       0.001490
      5 C                    -0.657885      -0.005434
      6 C                    -0.118965       0.008071
      7 O                     0.080466       0.287133
      8 H                     0.307943      -0.000043
      9 H                     0.337045      -0.000045
     10 H                     0.325789      -0.000895
     11 H                     0.296218       0.000350
     12 H                     0.327772       0.002293
     13 O                    -0.460635       0.000033
     14 H                     0.353860       0.000072
     15 O                    -0.141525       0.000247
     16 O                    -0.280504       0.000555
     17 H                     0.323710       0.001763
     18 H                     0.332922      -0.000435
     19 O                    -0.419695       0.006882
     20 H                     0.350741      -0.000207
     21 O                    -0.200683       0.697981
  --------------------------------------------------------
  Sum of atomic charges =     0.000000

                    Cartesian Multipole Moments
 -----------------------------------------------------------------
    Charge (ESU x 10^10)
                 0.0000
    Dipole Moment (Debye)
         X      -0.0546      Y       4.1572      Z      -3.4433
       Tot       5.3983
    Quadrupole Moments (Debye-Ang)
        XX     -70.1892     XY      11.3569     YY     -78.2906
        XZ     -16.2576     YZ      -8.0717     ZZ     -76.9133

             Standard Nuclear Orientation (Angstroms)
    I     Atom           X                Y                Z
 ----------------------------------------------------------------
    1      C       2.6734104870    -1.0133856500    -1.0766569455
    2      O       1.5952869242    -0.1112565256    -1.1267776265
    3      C       3.5203067944    -0.6271265149     0.1453714037
    4      O       2.7624164900    -0.9461054092     1.2708409184
    5      C       3.9689066851     0.8280209597     0.0743522565
    6      C       5.0310537016     1.2266255546     1.0734320097
    7      O       4.4072660002     1.0787743093     2.4056014887
    8      H       3.2768019537    -0.9475885302    -1.9788978699
    9      H       1.1746574978    -0.1997028163    -1.9896658454
   10      H       3.0976799036     1.4695721825     0.2056325120
   11      H       4.3780789325     1.0238573820    -0.9157464423
   12      H       5.9043191156     0.5811961322     1.0913972435
   13      O       2.2378731862    -2.3458737295    -0.9889839985
   14      H       1.8024608400    -2.4635069195    -0.1338814168
   15      O       4.6443130406    -1.5265058954     0.2403613145
   16      O       5.4489935152    -1.3958181788    -0.9319290447
   17      H       3.1354363428    -0.5189244255     2.0528136427
   18      H       6.2314219733    -0.9317708259    -0.5992041394
   19      O       5.4699525297     2.5308557342     0.9223722115
   20      H       4.7160056750     3.1039201626     0.7289699261
   21      O       5.2983425115     1.1153756037     3.3556713018
 ----------------------------------------------------------------

 Frequency:        47.35                  72.31                  88.87
 Force Cnst:      0.0119                 0.0205                 0.0448
 Red. Mass:       8.9755                 6.6459                 9.6219
 IR Intens:        0.393                  0.904                  5.560
 Frequency:       112.50                 139.35                 150.46
 Force Cnst:      0.0450                 0.0810                 0.0671
 Red. Mass:       6.0352                 7.0805                 5.0304
 IR Intens:       10.080                  1.722                 24.649
 Frequency:       218.10                 255.33                 279.71
 Force Cnst:      0.1701                 0.1836                 0.0792
 Red. Mass:       6.0676                 4.7804                 1.7174
 IR Intens:       12.043                 18.076                108.546
 Frequency:       294.70                 307.55                 326.34
 Force Cnst:      0.0890                 0.1482                 0.2082
 Red. Mass:       1.7392                 2.6596                 3.3178
 IR Intens:      134.992                 83.938                 75.572
 Frequency:       330.98                 353.77                 382.77
 Force Cnst:      0.3129                 0.1053                 0.1134
 Red. Mass:       4.8486                 1.4281                 1.3134
 IR Intens:       25.081                120.529                 75.430
 Frequency:       384.35                 405.15                 416.28
 Force Cnst:      0.2111                 0.1237                 0.1435
 Red. Mass:       2.4258                 1.2789                 1.4056
 IR Intens:      115.785                156.869                174.086
 Frequency:       491.58                 514.40                 543.43
 Force Cnst:      0.6965                 0.5868                 1.0575
 Red. Mass:       4.8920                 3.7637                 6.0780
 IR Intens:       77.585                  8.770                 61.075
 Frequency:       603.05                 619.33                 734.22
 Force Cnst:      1.1862                 1.2297                 1.2127
 Red. Mass:       5.5360                 5.4412                 3.8182
 IR Intens:       89.032                 48.335                 16.355
 Frequency:       790.75                 828.15                 953.18
 Force Cnst:      1.2865                 1.6299                 1.7215
 Red. Mass:       3.4921                 4.0335                 3.2159
 IR Intens:       60.257                 65.077                 61.158
 Frequency:       991.48                1030.50                1073.34
 Force Cnst:      2.5133                 6.3342                 1.5645
 Red. Mass:       4.3395                10.1238                 2.3049
 IR Intens:       83.895                 24.827                231.674
 Frequency:      1091.27                1154.71                1177.86
 Force Cnst:      2.2987                 2.2306                 1.6039
 Red. Mass:       3.2762                 2.8394                 1.9622
 IR Intens:      285.055                185.836                141.359
 Frequency:      1217.19                1228.64                1261.62
 Force Cnst:      1.0056                 1.4647                 2.4252
 Red. Mass:       1.1520                 1.6468                 2.5860
 IR Intens:       29.592                117.494                129.462
 Frequency:      1270.25                1286.37                1300.57
 Force Cnst:      3.9584                 1.9639                 1.8771
 Red. Mass:       4.1638                 2.0143                 1.8835
 IR Intens:      117.249                 87.385                266.188
 Frequency:      1338.50                1362.93                1383.88
 Force Cnst:      2.1172                 1.4784                 1.6343
 Red. Mass:       2.0057                 1.3508                 1.4484
 IR Intens:       54.996                 45.772                 20.205
 Frequency:      1408.89                1434.93                1438.27
 Force Cnst:      1.7729                 1.4199                 1.4466
 Red. Mass:       1.5159                 1.1704                 1.1869
 IR Intens:       38.077                 16.410                 70.883
 Frequency:      1440.89                1482.52                1491.12
 Force Cnst:      1.5579                 1.8039                 2.2288
 Red. Mass:       1.2736                 1.3931                 1.7014
 IR Intens:      153.765                103.522                  7.263
 Frequency:      3094.92                3135.33                3143.67
 Force Cnst:      5.9901                 6.3046                 6.4155
 Red. Mass:       1.0614                 1.0885                 1.1018
 IR Intens:        1.573                 21.520                  1.152
 Frequency:      3163.65                3767.68                3779.53
 Force Cnst:      6.4225                 8.9348                 8.9777
 Red. Mass:       1.0891                 1.0683                 1.0667
 IR Intens:       12.910                113.971                350.389
 Frequency:      3781.70                3786.38                3823.07
 Force Cnst:      8.9790                 9.0066                 9.1863
 Red. Mass:       1.0656                 1.0663                 1.0668
 IR Intens:      120.753                144.902                144.518

 STANDARD THERMODYNAMIC QUANTITIES AT   298.15 K  AND     1.00 ATM

   This Molecule has  0 Imaginary Frequencies
   Zero point vibrational energy:       98.620 kcal/mol

   Atom    1 Element C  Has Mass   12.00000
   Atom    2 Element O  Has Mass   15.99491
   Atom    3 Element C  Has Mass   12.00000
   Atom    4 Element O  Has Mass   15.99491
   Atom    5 Element C  Has Mass   12.00000
   Atom    6 Element C  Has Mass   12.00000
   Atom    7 Element O  Has Mass   15.99491
   Atom    8 Element H  Has Mass    1.00783
   Atom    9 Element H  Has Mass    1.00783
   Atom   10 Element H  Has Mass    1.00783
   Atom   11 Element H  Has Mass    1.00783
   Atom   12 Element H  Has Mass    1.00783
   Atom   13 Element O  Has Mass   15.99491
   Atom   14 Element H  Has Mass    1.00783
   Atom   15 Element O  Has Mass   15.99491
   Atom   16 Element O  Has Mass   15.99491
   Atom   17 Element H  Has Mass    1.00783
   Atom   18 Element H  Has Mass    1.00783
   Atom   19 Element O  Has Mass   15.99491
   Atom   20 Element H  Has Mass    1.00783
   Atom   21 Element O  Has Mass   15.99491
   Molecular Mass:   185.029750 amu
   Principal axes and moments of inertia in amu*Bohr^2:
                             1           2           3
    Eigenvalues --     1207.71435  3183.97635  3280.53408
          X               0.51876     0.84237    -0.14593
          Y               0.60552    -0.48253    -0.63286
          Z               0.60352    -0.23994     0.76039
   Rotational Symmetry Number is   1
   The Molecule is an Asymmetric Top
   Translational Enthalpy:        0.889 kcal/mol
   Rotational Enthalpy:           0.889 kcal/mol
   Vibrational Enthalpy:        105.284 kcal/mol
   gas constant (RT):             0.592 kcal/mol
   Translational Entropy:        41.552  cal/mol.K
   Rotational Entropy:           30.912  cal/mol.K
   Vibrational Entropy:          41.270  cal/mol.K

   Total Enthalpy:              107.654 kcal/mol
   Total Entropy:               113.734  cal/mol.K
 Total job time:  36092.51s(wall), 513730.03s(cpu)
        *  Thank you very much for using Q-Chem.  Have a nice day.  *
