 Q-Chem 5.4, Q-Chem, Inc., Pleasanton, CA (2021)
 Q-Chem 5.4.1 for Intel X86 EM64T Linux

User input:
--------------------------------------------------------------
$molecule
0 2
C         2.6656928706   -1.0177677310   -1.0878159223
O         1.5986988813   -0.0999773583   -1.1350063474
C         3.5231781698   -0.6221599257    0.1242001909
O         2.7557708465   -0.9248636356    1.2520834335
C         3.9865934295    0.8316789700    0.0532741915
C         5.0345867789    1.2218116138    1.0772553454
O         4.3915690060    1.0313827217    2.3986698410
H         3.2640965972   -0.9811940604   -2.0012442877
H         1.1364020178   -0.2495453699   -1.9763584780
H         3.1133958321    1.4822381058    0.1674318858
H         4.4197087747    1.0242616058   -0.9325755042
H         5.9159825684    0.5802959501    1.0898302154
O         2.2200431972   -2.3450732109   -0.9632961855
H         1.8100178925   -2.4123523581   -0.0816785250
O         4.6410966923   -1.5290537383    0.2280233635
O         5.4510198099   -1.3855435043   -0.9511117873
H         3.1724352046   -0.5169401339    2.0324623541
H         6.2388205912   -0.9348188239   -0.5931171852
O         5.4698174510    2.5306738606    0.9622388907
H         4.6950773466    3.0977603818    0.7972347943
O         5.2709801419    1.1498192408    3.3645726167
$end

$rem
BASIS = 6-311++G(2df,2p)
GUI = 2
JOB_TYPE = Optimization
METHOD = wB97M-V
SCF_ALGORITHM = DIIS_GDM
MAX_SCF_CYCLES = 400
GEOM_OPT_MAX_CYCLES = 150
SCF_CONVERGENCE = 7
THRESH = 12
Solvent_method = SMD
$end
--------------------------------------------------------------

   22    -759.4945895942      4.73e-08  Convergence criterion met
 Total energy in the final basis set =     -759.4893108639
   20    -759.4954693107      6.44e-08  Convergence criterion met
 Total energy in the final basis set =     -759.4900919665
   20    -759.4947382045      6.40e-08  Convergence criterion met
 Total energy in the final basis set =     -759.4894750989
   20    -759.4954938419      7.43e-08  Convergence criterion met
 Total energy in the final basis set =     -759.4901481082
   19    -759.4954545811      6.92e-08  Convergence criterion met
 Total energy in the final basis set =     -759.4900678022
   20    -759.4955738799      8.00e-08  Convergence criterion met
 Total energy in the final basis set =     -759.4902178576
   19    -759.4955784896      7.39e-08  Convergence criterion met
 Total energy in the final basis set =     -759.4902219827
   20    -759.4955800180      4.86e-08  Convergence criterion met
 Total energy in the final basis set =     -759.4902250313
   19    -759.4955826489      7.45e-08  Convergence criterion met
 Total energy in the final basis set =     -759.4902271067

             Standard Nuclear Orientation (Angstroms)
    I     Atom           X                Y                Z
 ----------------------------------------------------------------
    1      C       2.6734104870    -1.0133856500    -1.0766569455
    2      O       1.5952869242    -0.1112565256    -1.1267776265
    3      C       3.5203067944    -0.6271265149     0.1453714037
    4      O       2.7624164900    -0.9461054092     1.2708409184
    5      C       3.9689066851     0.8280209597     0.0743522565
    6      C       5.0310537016     1.2266255546     1.0734320097
    7      O       4.4072660002     1.0787743093     2.4056014887
    8      H       3.2768019537    -0.9475885302    -1.9788978699
    9      H       1.1746574978    -0.1997028163    -1.9896658454
   10      H       3.0976799036     1.4695721825     0.2056325120
   11      H       4.3780789325     1.0238573820    -0.9157464423
   12      H       5.9043191156     0.5811961322     1.0913972435
   13      O       2.2378731862    -2.3458737295    -0.9889839985
   14      H       1.8024608400    -2.4635069195    -0.1338814168
   15      O       4.6443130406    -1.5265058954     0.2403613145
   16      O       5.4489935152    -1.3958181788    -0.9319290447
   17      H       3.1354363428    -0.5189244255     2.0528136427
   18      H       6.2314219733    -0.9317708259    -0.5992041394
   19      O       5.4699525297     2.5308557342     0.9223722115
   20      H       4.7160056750     3.1039201626     0.7289699261
   21      O       5.2983425115     1.1153756037     3.3556713018
 ----------------------------------------------------------------

   19    -759.4955846458      6.47e-08  Convergence criterion met
 Total energy in the final basis set =     -759.4902274278
 Final energy is   -759.490227427804
 **  OPTIMIZATION CONVERGED  **

                    Orbital Energies (a.u.)
 --------------------------------------------------------------

 Alpha MOs
 -- Occupied --
-19.4643 -19.4251 -19.4064 -19.3995 -19.3636 -19.3611 -19.3487 -19.3474
-10.4700 -10.4657 -10.4491 -10.3554  -1.3499  -1.2803  -1.2131  -1.1937
 -1.1842  -1.1383  -1.0419  -1.0164  -0.9075  -0.8402  -0.7771  -0.7419
 -0.6933  -0.6781  -0.6630  -0.6554  -0.6408  -0.6237  -0.6124  -0.5893
 -0.5800  -0.5756  -0.5520  -0.5461  -0.5316  -0.4987  -0.4863  -0.4725
 -0.4655  -0.4590  -0.4384  -0.4337  -0.4160  -0.4093  -0.4045  -0.4002
 -0.3907

 Beta MOs
 -- Occupied --
-19.4548 -19.4064 -19.4057 -19.3995 -19.3633 -19.3610 -19.3487 -19.3474
-10.4700 -10.4661 -10.4491 -10.3554  -1.3243  -1.2803  -1.2131  -1.1914
 -1.1841  -1.1383  -1.0418  -0.9862  -0.9022  -0.8363  -0.7737  -0.7416
 -0.6926  -0.6678  -0.6572  -0.6524  -0.6227  -0.6170  -0.6032  -0.5808
 -0.5757  -0.5678  -0.5442  -0.5319  -0.5165  -0.4957  -0.4830  -0.4702
 -0.4639  -0.4563  -0.4371  -0.4336  -0.4157  -0.4039  -0.3907  -0.3859

          Ground-State Mulliken Net Atomic Charges

     Atom                 Charge (a.u.)    Spin (a.u.)
  --------------------------------------------------------
      1 C                    -0.131436      -0.002937
      2 O                    -0.420939      -0.000101
      3 C                     0.195662       0.003227
      4 O                    -0.399840       0.001485
      5 C                    -0.657769      -0.005448
      6 C                    -0.119038       0.008083
      7 O                     0.080174       0.286795
      8 H                     0.307942      -0.000043
      9 H                     0.337045      -0.000045
     10 H                     0.325788      -0.000894
     11 H                     0.296235       0.000350
     12 H                     0.327771       0.002292
     13 O                    -0.460632       0.000033
     14 H                     0.353861       0.000072
     15 O                    -0.141532       0.000246
     16 O                    -0.280495       0.000555
     17 H                     0.323713       0.001764
     18 H                     0.332923      -0.000434
     19 O                    -0.419679       0.006880
     20 H                     0.350738      -0.000207
     21 O                    -0.200492       0.698326
  --------------------------------------------------------
  Sum of atomic charges =     0.000000

                    Cartesian Multipole Moments
 -----------------------------------------------------------------
    Charge (ESU x 10^10)
                 0.0000
    Dipole Moment (Debye)
         X      -0.0531      Y       4.1571      Z      -3.4438
       Tot       5.3985
    Quadrupole Moments (Debye-Ang)
        XX     -70.1751     XY      11.3583     YY     -78.2917
        XZ     -16.2545     YZ      -8.0721     ZZ     -76.9137

 Total job time:  3890.38s(wall), 54317.59s(cpu)
        *  Thank you very much for using Q-Chem.  Have a nice day.  *
