 Q-Chem 5.4, Q-Chem, Inc., Pleasanton, CA (2021)
 Q-Chem 5.4.1 for Intel X86 EM64T Linux

User input:
--------------------------------------------------------------
$molecule
0 2
C        -0.2253534428   -0.1397844562    0.6729784886
C        -0.8962185549   -1.1056838838    1.6481956904
C        -1.9111381252   -2.0273790149    1.0609817773
C        -2.4186674228   -1.8017075940   -0.1485992126
C        -2.0172186874   -0.6438624830   -0.9492583522
C        -1.0222774662    0.1571977686   -0.5706338622
C        -0.6030504200    1.3613803407   -1.3549606604
H        -0.0375569227    0.7947365936    1.2107018004
H        -0.1138878584   -1.6575745243    2.1662229861
H        -2.2186896339   -2.8742727498    1.6588159940
H        -3.1557219310   -2.4767189707   -0.5626930686
H        -2.5567947821   -0.4429850858   -1.8664805983
H        -1.2317475232    1.4810840489   -2.2375104374
O         0.7833353835    1.2935123556   -1.7280546825
H        -0.6944428048    2.2569694126   -0.7398515534
H         0.8689011078    0.6271613359   -2.4195808729
O         1.0263646134   -0.7451276272    0.3216924494
H         1.4125072101   -0.1873596416   -0.3684671293
O        -1.5016542552   -0.3419563325    2.7540906430
O        -2.5056968840    0.3847931077    2.3523852005
$end

$rem
BASIS = 6-311++G(2df,2p)
GUI = 2
JOB_TYPE = Frequency
METHOD = wB97M-V
SOLVENT_METHOD = SMD
SCF_ALGORITHM = DIIS_GDM
MAX_SCF_CYCLES = 400
SCF_CONVERGENCE = 7
THRESH = 12
UNRESTRICTED = 1
SYMMETRY_IGNORE = 1
$end
--------------------------------------------------------------

   24    -572.8990535694      5.79e-08  Convergence criterion met
 Total energy in the final basis set =     -572.8942848243
   21    -572.8990531215      5.83e-08  Convergence criterion met
 Total energy in the final basis set =     -572.8942840551
   21    -572.8990524473      6.22e-08  Convergence criterion met
 Total energy in the final basis set =     -572.8942840196
   21    -572.8990523993      5.90e-08  Convergence criterion met
 Total energy in the final basis set =     -572.8942837745
   21    -572.8990527348      5.49e-08  Convergence criterion met
 Total energy in the final basis set =     -572.8942838664
   21    -572.8990527219      5.81e-08  Convergence criterion met
 Total energy in the final basis set =     -572.8942838725
   21    -572.8990525073      6.58e-08  Convergence criterion met
 Total energy in the final basis set =     -572.8942838644
   21    -572.8990528863      5.31e-08  Convergence criterion met
 Total energy in the final basis set =     -572.8942842826
   21    -572.8990531470      6.98e-08  Convergence criterion met
 Total energy in the final basis set =     -572.8942843307
   21    -572.8990531417      5.92e-08  Convergence criterion met
 Total energy in the final basis set =     -572.8942843161
   21    -572.8990529150      6.74e-08  Convergence criterion met
 Total energy in the final basis set =     -572.8942842503
   21    -572.8990533868      5.81e-08  Convergence criterion met
 Total energy in the final basis set =     -572.8942845487
   21    -572.8990531297      7.20e-08  Convergence criterion met
 Total energy in the final basis set =     -572.8942844776
   21    -572.8990535782      5.65e-08  Convergence criterion met
 Total energy in the final basis set =     -572.8942847320
   21    -572.8990532733      6.17e-08  Convergence criterion met
 Total energy in the final basis set =     -572.8942846291

                    Orbital Energies (a.u.)
 --------------------------------------------------------------

 Alpha MOs
 -- Occupied --
-19.4634 -19.4164 -19.3434 -19.3408 -10.4127 -10.4070 -10.3892 -10.3542
-10.3537 -10.3497 -10.3495  -1.3430  -1.1681  -1.1529  -1.0232  -0.9672
 -0.8963  -0.8587  -0.8020  -0.7502  -0.7174  -0.6682  -0.6442  -0.6345
 -0.6193  -0.6086  -0.5900  -0.5794  -0.5537  -0.5447  -0.5364  -0.5126
 -0.5041  -0.4715  -0.4536  -0.4414  -0.4295  -0.4096  -0.4034  -0.3914
 -0.3803  -0.3286

 Beta MOs
 -- Occupied --
-19.4529 -19.3978 -19.3434 -19.3408 -10.4131 -10.4067 -10.3892 -10.3543
-10.3537 -10.3497 -10.3492  -1.3166  -1.1680  -1.1529  -1.0008  -0.9582
 -0.8945  -0.8513  -0.8015  -0.7456  -0.7148  -0.6608  -0.6402  -0.6207
 -0.6075  -0.5886  -0.5857  -0.5688  -0.5494  -0.5368  -0.5197  -0.5056
 -0.5035  -0.4628  -0.4499  -0.4397  -0.4289  -0.3956  -0.3916  -0.3821
 -0.3275

          Ground-State Mulliken Net Atomic Charges

     Atom                 Charge (a.u.)    Spin (a.u.)
  --------------------------------------------------------
      1 C                    -0.640214       0.012702
      2 C                    -0.038967      -0.011195
      3 C                    -0.330717       0.018142
      4 C                    -0.209323      -0.010137
      5 C                    -0.935064       0.016739
      6 C                     0.898263      -0.009534
      7 C                    -0.351369      -0.004190
      8 H                     0.294780       0.000353
      9 H                     0.242711       0.000930
     10 H                     0.327782      -0.000981
     11 H                     0.294664       0.000972
     12 H                     0.281309      -0.000011
     13 H                     0.241525       0.000063
     14 O                    -0.396532      -0.000269
     15 H                     0.218203       0.000119
     16 H                     0.328460       0.000053
     17 O                    -0.421416      -0.000637
     18 H                     0.334279       0.000210
     19 O                     0.071610       0.317165
     20 O                    -0.209986       0.669502
  --------------------------------------------------------
  Sum of atomic charges =    -0.000000

                    Cartesian Multipole Moments
 -----------------------------------------------------------------
    Charge (ESU x 10^10)
                -0.0000
    Dipole Moment (Debye)
         X      -0.4860      Y      -1.3659      Z      -4.1488
       Tot       4.3948
    Quadrupole Moments (Debye-Ang)
        XX     -69.6505     XY       4.8053     YY     -63.4411
        XZ       9.1021     YZ      -2.4850     ZZ     -63.5154

             Standard Nuclear Orientation (Angstroms)
    I     Atom           X                Y                Z
 ----------------------------------------------------------------
    1      C      -0.2253534428    -0.1397844562     0.6729784886
    2      C      -0.8962185549    -1.1056838838     1.6481956904
    3      C      -1.9111381252    -2.0273790149     1.0609817773
    4      C      -2.4186674228    -1.8017075940    -0.1485992126
    5      C      -2.0172186874    -0.6438624830    -0.9492583522
    6      C      -1.0222774662     0.1571977686    -0.5706338622
    7      C      -0.6030504200     1.3613803407    -1.3549606604
    8      H      -0.0375569227     0.7947365936     1.2107018004
    9      H      -0.1138878584    -1.6575745243     2.1662229861
   10      H      -2.2186896339    -2.8742727498     1.6588159940
   11      H      -3.1557219310    -2.4767189707    -0.5626930686
   12      H      -2.5567947821    -0.4429850858    -1.8664805983
   13      H      -1.2317475232     1.4810840489    -2.2375104374
   14      O       0.7833353835     1.2935123556    -1.7280546825
   15      H      -0.6944428048     2.2569694126    -0.7398515534
   16      H       0.8689011078     0.6271613359    -2.4195808729
   17      O       1.0263646134    -0.7451276272     0.3216924494
   18      H       1.4125072101    -0.1873596416    -0.3684671293
   19      O      -1.5016542552    -0.3419563325     2.7540906430
   20      O      -2.5056968840     0.3847931077     2.3523852005
 ----------------------------------------------------------------

 Frequency:        45.82                  67.93                  95.26
 Force Cnst:      0.0075                 0.0141                 0.0417
 Red. Mass:       6.0687                 5.1749                 7.8062
 IR Intens:        3.149                  6.584                  8.344
 Frequency:       147.33                 178.69                 239.24
 Force Cnst:      0.0710                 0.1149                 0.1368
 Red. Mass:       5.5498                 6.1089                 4.0570
 IR Intens:        5.214                 21.715                 15.104
 Frequency:       287.45                 319.81                 365.24
 Force Cnst:      0.1508                 0.1279                 0.1793
 Red. Mass:       3.0979                 2.1216                 2.2807
 IR Intens:       11.509                 86.190                114.650
 Frequency:       377.75                 382.34                 485.06
 Force Cnst:      0.1881                 0.4054                 0.5129
 Red. Mass:       2.2369                 4.7073                 3.6997
 IR Intens:       80.140                 11.485                  2.833
 Frequency:       500.60                 513.43                 569.49
 Force Cnst:      0.3534                 0.2225                 0.9912
 Red. Mass:       2.3935                 1.4327                 5.1873
 IR Intens:       73.741                122.676                 24.635
 Frequency:       657.69                 694.15                 763.36
 Force Cnst:      1.3852                 0.9462                 0.6131
 Red. Mass:       5.4352                 3.3328                 1.7857
 IR Intens:        3.820                  4.963                 60.674
 Frequency:       856.22                 883.64                 892.08
 Force Cnst:      1.6263                 1.0917                 2.2060
 Red. Mass:       3.7652                 2.3730                 4.7050
 IR Intens:       12.474                 47.590                222.642
 Frequency:       939.32                 965.90                 997.76
 Force Cnst:      1.0779                 0.8921                 1.7948
 Red. Mass:       2.0735                 1.6230                 3.0600
 IR Intens:        2.790                  0.567                 25.315
 Frequency:      1010.07                1029.30                1046.56
 Force Cnst:      2.3301                 0.8506                 1.5836
 Red. Mass:       3.8763                 1.3626                 2.4540
 IR Intens:      148.700                  5.041                  2.866
 Frequency:      1066.62                1117.77                1173.86
 Force Cnst:      2.9909                 1.3116                 0.9992
 Red. Mass:       4.4621                 1.7817                 1.2307
 IR Intens:      172.927                 25.716                 31.148
 Frequency:      1189.32                1213.07                1228.16
 Force Cnst:      0.9297                 1.4747                 2.7326
 Red. Mass:       1.1156                 1.7009                 3.0747
 IR Intens:       19.236                 16.398                 22.964
 Frequency:      1261.25                1324.73                1341.46
 Force Cnst:      1.1165                 1.4157                 1.4922
 Red. Mass:       1.1912                 1.3692                 1.4074
 IR Intens:       58.790                  1.822                  3.598
 Frequency:      1360.17                1371.57                1391.28
 Force Cnst:      1.7163                 1.3925                 1.6699
 Red. Mass:       1.5746                 1.2563                 1.4642
 IR Intens:       29.233                 36.851                 16.853
 Frequency:      1402.53                1429.54                1452.72
 Force Cnst:      1.5573                 2.2382                 2.4079
 Red. Mass:       1.3437                 1.8589                 1.9365
 IR Intens:       79.119                 27.241                 15.589
 Frequency:      1477.33                1701.87                1754.36
 Force Cnst:      1.4039                13.6620                12.2104
 Red. Mass:       1.0918                 8.0059                 6.7335
 IR Intens:        8.910                  3.713                  2.227
 Frequency:      3038.71                3065.74                3114.74
 Force Cnst:      5.8931                 5.8569                 6.3376
 Red. Mass:       1.0832                 1.0577                 1.1087
 IR Intens:       39.634                 52.218                 33.406
 Frequency:      3121.23                3184.23                3196.05
 Force Cnst:      6.2299                 6.5116                 6.5488
 Red. Mass:       1.0854                 1.0900                 1.0881
 IR Intens:        5.065                 14.201                 10.883
 Frequency:      3213.37                3742.46                3816.55
 Force Cnst:      6.6884                 8.7989                 9.1532
 Red. Mass:       1.0994                 1.0663                 1.0665
 IR Intens:       14.217                300.552                106.158

 STANDARD THERMODYNAMIC QUANTITIES AT   298.15 K  AND     1.00 ATM

   This Molecule has  0 Imaginary Frequencies
   Zero point vibrational energy:       98.729 kcal/mol

   Atom    1 Element C  Has Mass   12.00000
   Atom    2 Element C  Has Mass   12.00000
   Atom    3 Element C  Has Mass   12.00000
   Atom    4 Element C  Has Mass   12.00000
   Atom    5 Element C  Has Mass   12.00000
   Atom    6 Element C  Has Mass   12.00000
   Atom    7 Element C  Has Mass   12.00000
   Atom    8 Element H  Has Mass    1.00783
   Atom    9 Element H  Has Mass    1.00783
   Atom   10 Element H  Has Mass    1.00783
   Atom   11 Element H  Has Mass    1.00783
   Atom   12 Element H  Has Mass    1.00783
   Atom   13 Element H  Has Mass    1.00783
   Atom   14 Element O  Has Mass   15.99491
   Atom   15 Element H  Has Mass    1.00783
   Atom   16 Element H  Has Mass    1.00783
   Atom   17 Element O  Has Mass   15.99491
   Atom   18 Element H  Has Mass    1.00783
   Atom   19 Element O  Has Mass   15.99491
   Atom   20 Element O  Has Mass   15.99491
   Molecular Mass:   157.050110 amu
   Principal axes and moments of inertia in amu*Bohr^2:
                             1           2           3
    Eigenvalues --     1042.02373  2129.27508  2298.57973
          X              -0.50061     0.68026    -0.53538
          Y              -0.39833     0.36808     0.84015
          Z               0.76858     0.63385     0.08671
   Rotational Symmetry Number is   1
   The Molecule is an Asymmetric Top
   Translational Enthalpy:        0.889 kcal/mol
   Rotational Enthalpy:           0.889 kcal/mol
   Vibrational Enthalpy:        103.598 kcal/mol
   gas constant (RT):             0.592 kcal/mol
   Translational Entropy:        41.063  cal/mol.K
   Rotational Entropy:           30.012  cal/mol.K
   Vibrational Entropy:          30.518  cal/mol.K

   Total Enthalpy:              105.968 kcal/mol
   Total Entropy:               101.593  cal/mol.K
 Total job time:  61707.25s(wall), 475544.16s(cpu)
        *  Thank you very much for using Q-Chem.  Have a nice day.  *
