 Q-Chem 5.4, Q-Chem, Inc., Pleasanton, CA (2021)
 Q-Chem 5.4.1 for Intel X86 EM64T Linux

User input:
--------------------------------------------------------------
$molecule
0 2
C        -0.2316168378   -0.1220484138    0.6889249477
C        -0.8875816536   -1.1140714258    1.6539254900
C        -1.8875495447   -2.0501720062    1.0516528594
C        -2.4221212852   -1.7997598727   -0.1485272440
C        -2.0346568278   -0.6255768309   -0.9394912446
C        -1.0424606670    0.1838889538   -0.5500037080
C        -0.5832432145    1.3668180794   -1.3520885827
H        -0.0559877902    0.8101408571    1.2463424595
H        -0.0937374539   -1.6497322095    2.1809689039
H        -2.1774878305   -2.9169170907    1.6381551804
H        -3.1617403608   -2.4759038488   -0.5687625462
H        -2.5732951538   -0.4273930658   -1.8634100085
H        -1.2164311348    1.5098033811   -2.2346018315
O         0.7978160952    1.2237782447   -1.7357723870
H        -0.6215309330    2.2779797356   -0.7461453772
H         0.8240504384    0.5269923895   -2.4134372611
O         1.0201709469   -0.7062319996    0.3103703964
H         1.3665902845   -0.1114381515   -0.3838345709
O        -1.5274932117   -0.3668834334    2.7547508053
O        -2.5107022655    0.3791493074    2.3109583191
$end

$rem
BASIS = 6-311++G(2df,2p)
GUI = 2
JOB_TYPE = Optimization
METHOD = wB97M-V
SCF_ALGORITHM = DIIS_GDM
MAX_SCF_CYCLES = 400
GEOM_OPT_MAX_CYCLES = 150
SCF_CONVERGENCE = 7
THRESH = 12
UNRESTRICTED = 1
Solvent_method = SMD
$end
--------------------------------------------------------------

   24    -572.8981885589      7.83e-08  Convergence criterion met
 Total energy in the final basis set =     -572.8934293840
   22    -572.8989615507      4.45e-08  Convergence criterion met
 Total energy in the final basis set =     -572.8941520575
   21    -572.8989955169      5.85e-08  Convergence criterion met
 Total energy in the final basis set =     -572.8942429827
   22    -572.8990486547      3.24e-08  Convergence criterion met
 Total energy in the final basis set =     -572.8942776252
   21    -572.8990516628      7.48e-08  Convergence criterion met
 Total energy in the final basis set =     -572.8942806307
   21    -572.8990519003      7.87e-08  Convergence criterion met
 Total energy in the final basis set =     -572.8942830284
   21    -572.8990528892      8.00e-08  Convergence criterion met
 Total energy in the final basis set =     -572.8942843759

             Standard Nuclear Orientation (Angstroms)
    I     Atom           X                Y                Z
 ----------------------------------------------------------------
    1      C      -0.2253534428    -0.1397844562     0.6729784886
    2      C      -0.8962185549    -1.1056838838     1.6481956904
    3      C      -1.9111381252    -2.0273790149     1.0609817773
    4      C      -2.4186674228    -1.8017075940    -0.1485992126
    5      C      -2.0172186874    -0.6438624830    -0.9492583522
    6      C      -1.0222774662     0.1571977686    -0.5706338622
    7      C      -0.6030504200     1.3613803407    -1.3549606604
    8      H      -0.0375569227     0.7947365936     1.2107018004
    9      H      -0.1138878584    -1.6575745243     2.1662229861
   10      H      -2.2186896339    -2.8742727498     1.6588159940
   11      H      -3.1557219310    -2.4767189707    -0.5626930686
   12      H      -2.5567947821    -0.4429850858    -1.8664805983
   13      H      -1.2317475232     1.4810840489    -2.2375104374
   14      O       0.7833353835     1.2935123556    -1.7280546825
   15      H      -0.6944428048     2.2569694126    -0.7398515534
   16      H       0.8689011078     0.6271613359    -2.4195808729
   17      O       1.0263646134    -0.7451276272     0.3216924494
   18      H       1.4125072101    -0.1873596416    -0.3684671293
   19      O      -1.5016542552    -0.3419563325     2.7540906430
   20      O      -2.5056968840     0.3847931077     2.3523852005
 ----------------------------------------------------------------

   21    -572.8990535696      6.62e-08  Convergence criterion met
 Total energy in the final basis set =     -572.8942848244
 Final energy is   -572.894284824439
 **  OPTIMIZATION CONVERGED  **

                    Orbital Energies (a.u.)
 --------------------------------------------------------------

 Alpha MOs
 -- Occupied --
-19.4634 -19.4164 -19.3434 -19.3408 -10.4127 -10.4070 -10.3892 -10.3542
-10.3537 -10.3497 -10.3495  -1.3432  -1.1681  -1.1529  -1.0233  -0.9672
 -0.8963  -0.8587  -0.8020  -0.7502  -0.7174  -0.6682  -0.6442  -0.6345
 -0.6193  -0.6086  -0.5900  -0.5794  -0.5537  -0.5447  -0.5364  -0.5126
 -0.5041  -0.4715  -0.4536  -0.4414  -0.4295  -0.4095  -0.4033  -0.3914
 -0.3803  -0.3286

 Beta MOs
 -- Occupied --
-19.4529 -19.3978 -19.3434 -19.3408 -10.4131 -10.4067 -10.3892 -10.3543
-10.3537 -10.3497 -10.3492  -1.3167  -1.1680  -1.1529  -1.0009  -0.9582
 -0.8945  -0.8513  -0.8015  -0.7456  -0.7148  -0.6609  -0.6402  -0.6207
 -0.6075  -0.5886  -0.5857  -0.5688  -0.5494  -0.5368  -0.5198  -0.5056
 -0.5035  -0.4628  -0.4499  -0.4397  -0.4289  -0.3956  -0.3916  -0.3821
 -0.3275

          Ground-State Mulliken Net Atomic Charges

     Atom                 Charge (a.u.)    Spin (a.u.)
  --------------------------------------------------------
      1 C                    -0.640011       0.012729
      2 C                    -0.038970      -0.011216
      3 C                    -0.330638       0.018145
      4 C                    -0.209343      -0.010137
      5 C                    -0.935121       0.016721
      6 C                     0.898157      -0.009536
      7 C                    -0.351368      -0.004184
      8 H                     0.294711       0.000353
      9 H                     0.242731       0.000932
     10 H                     0.327783      -0.000981
     11 H                     0.294659       0.000972
     12 H                     0.281291      -0.000011
     13 H                     0.241528       0.000064
     14 O                    -0.396528      -0.000268
     15 H                     0.218199       0.000119
     16 H                     0.328458       0.000053
     17 O                    -0.421408      -0.000636
     18 H                     0.334280       0.000210
     19 O                     0.071771       0.317331
     20 O                    -0.210182       0.669339
  --------------------------------------------------------
  Sum of atomic charges =     0.000000

                    Cartesian Multipole Moments
 -----------------------------------------------------------------
    Charge (ESU x 10^10)
                 0.0000
    Dipole Moment (Debye)
         X      -0.4855      Y      -1.3664      Z      -4.1500
       Tot       4.3961
    Quadrupole Moments (Debye-Ang)
        XX     -69.6527     XY       4.8063     YY     -63.4401
        XZ       9.1055     YZ      -2.4857     ZZ     -63.5200

 Total job time:  3736.71s(wall), 29005.81s(cpu)
        *  Thank you very much for using Q-Chem.  Have a nice day.  *
