 Q-Chem 5.4, Q-Chem, Inc., Pleasanton, CA (2021)
 Q-Chem 5.4.1 for Intel X86 EM64T Linux

User input:
--------------------------------------------------------------
$molecule
0 2
C        -1.1170613374    0.1523573205    0.8966375857
O        -1.3179571462    1.1078482845   -0.1818832667
O        -0.0210660090    1.7570395897   -0.4405765917
C         0.1053878512    0.7439502289    1.5895595307
O         0.6319348056   -0.1239707648    2.5626672089
C         0.9318189846    1.0277260477    0.3303832178
C         1.3234246525   -0.1979349610   -0.4708674913
O         1.6533304896   -1.3803364189    0.2445245938
C         0.3773374675   -1.3223874023   -0.4836195547
C        -0.8418567471   -1.1850765156    0.3095690843
H        -2.0183744544    0.1912886864    1.5009370126
H        -0.1614453926    1.7049249315    2.0294065564
H         1.2441342314    0.3791544216    3.1099729876
H         1.7640499265    1.7066670383    0.5024068414
H         1.9319028887   -0.0029246966   -1.3460299488
H         0.3649624956   -1.9936378436   -1.3312090354
H        -1.5846568063   -1.9671608466    0.3256583695
$end

$rem
BASIS = 6-311++G(2df,2p)
GUI = 2
JOB_TYPE = Frequency
METHOD = wB97M-V
SOLVENT_METHOD = SMD
SCF_ALGORITHM = DIIS_GDM
MAX_SCF_CYCLES = 400
SCF_CONVERGENCE = 7
THRESH = 12
$end
--------------------------------------------------------------

   18    -533.5647005313      6.09e-08  Convergence criterion met
 Total energy in the final basis set =     -533.5611238851
   17    -533.5646990057      7.73e-08  Convergence criterion met
 Total energy in the final basis set =     -533.5611227168
   17    -533.5646998412      8.14e-08  Convergence criterion met
 Total energy in the final basis set =     -533.5611228324
   17    -533.5647003613      7.77e-08  Convergence criterion met
 Total energy in the final basis set =     -533.5611231983
   17    -533.5646991497      7.82e-08  Convergence criterion met
 Total energy in the final basis set =     -533.5611230172
   17    -533.5646997743      7.64e-08  Convergence criterion met
 Total energy in the final basis set =     -533.5611230391
   17    -533.5646997581      8.37e-08  Convergence criterion met
 Total energy in the final basis set =     -533.5611231983
   17    -533.5647002684      7.53e-08  Convergence criterion met
 Total energy in the final basis set =     -533.5611234439
   17    -533.5647004214      7.92e-08  Convergence criterion met
 Total energy in the final basis set =     -533.5611234885
   17    -533.5646998802      7.92e-08  Convergence criterion met
 Total energy in the final basis set =     -533.5611234774
   17    -533.5647004891      7.81e-08  Convergence criterion met
 Total energy in the final basis set =     -533.5611235982
   17    -533.5646999292      7.89e-08  Convergence criterion met
 Total energy in the final basis set =     -533.5611235392
   17    -533.5647003791      7.99e-08  Convergence criterion met
 Total energy in the final basis set =     -533.5611234752
   17    -533.5647004655      7.95e-08  Convergence criterion met
 Total energy in the final basis set =     -533.5611238139
   17    -533.5647005264      7.69e-08  Convergence criterion met
 Total energy in the final basis set =     -533.5611238854

                    Orbital Energies (a.u.)
 --------------------------------------------------------------

 Alpha MOs
 -- Occupied --
-19.4050 -19.4032 -19.3602 -19.3485 -10.4102 -10.4089 -10.4079 -10.4043
-10.4037 -10.3675  -1.2709  -1.2142  -1.1714  -1.0702  -0.9462  -0.8701
 -0.8250  -0.7613  -0.7274  -0.7023  -0.6686  -0.6370  -0.6113  -0.5851
 -0.5767  -0.5632  -0.5500  -0.5316  -0.5043  -0.4973  -0.4865  -0.4628
 -0.4537  -0.4205  -0.4066  -0.3925  -0.3589  -0.3148

 Beta MOs
 -- Occupied --
-19.4050 -19.4011 -19.3572 -19.3484 -10.4098 -10.4096 -10.4079 -10.4054
-10.4032 -10.3551  -1.2688  -1.2087  -1.1710  -1.0673  -0.9388  -0.8561
 -0.8220  -0.7574  -0.7233  -0.6981  -0.6633  -0.6334  -0.6073  -0.5795
 -0.5742  -0.5586  -0.5429  -0.5253  -0.4993  -0.4934  -0.4818  -0.4596
 -0.4476  -0.4129  -0.4044  -0.3884  -0.3551

          Ground-State Mulliken Net Atomic Charges

     Atom                 Charge (a.u.)    Spin (a.u.)
  --------------------------------------------------------
      1 C                    -0.043223      -0.016296
      2 O                    -0.146807       0.039742
      3 O                    -0.122541       0.003142
      4 C                    -0.118569       0.015647
      5 O                    -0.432599      -0.001146
      6 C                    -0.227006      -0.005645
      7 C                    -0.221275       0.041424
      8 O                    -0.278105       0.074499
      9 C                    -0.143659      -0.013626
     10 C                    -0.308889       0.861818
     11 H                     0.296323       0.006918
     12 H                     0.289805      -0.001184
     13 H                     0.343668       0.000394
     14 H                     0.271298       0.000717
     15 H                     0.274337       0.001949
     16 H                     0.242872       0.009215
     17 H                     0.324371      -0.017569
  --------------------------------------------------------
  Sum of atomic charges =     0.000000

                    Cartesian Multipole Moments
 -----------------------------------------------------------------
    Charge (ESU x 10^10)
                 0.0000
    Dipole Moment (Debye)
         X       0.6125      Y       0.9841      Z       1.5131
       Tot       1.9061
    Quadrupole Moments (Debye-Ang)
        XX     -55.5791     XY      11.5585     YY     -60.9069
        XZ      -1.9689     YZ      11.5475     ZZ     -52.6406

             Standard Nuclear Orientation (Angstroms)
    I     Atom           X                Y                Z
 ----------------------------------------------------------------
    1      C      -1.1170613374     0.1523573205     0.8966375857
    2      O      -1.3179571462     1.1078482845    -0.1818832667
    3      O      -0.0210660090     1.7570395897    -0.4405765917
    4      C       0.1053878512     0.7439502289     1.5895595307
    5      O       0.6319348056    -0.1239707648     2.5626672089
    6      C       0.9318189846     1.0277260477     0.3303832178
    7      C       1.3234246525    -0.1979349610    -0.4708674913
    8      O       1.6533304896    -1.3803364189     0.2445245938
    9      C       0.3773374675    -1.3223874023    -0.4836195547
   10      C      -0.8418567471    -1.1850765156     0.3095690843
   11      H      -2.0183744544     0.1912886864     1.5009370126
   12      H      -0.1614453926     1.7049249315     2.0294065564
   13      H       1.2441342314     0.3791544216     3.1099729876
   14      H       1.7640499265     1.7066670383     0.5024068414
   15      H       1.9319028887    -0.0029246966    -1.3460299488
   16      H       0.3649624956    -1.9936378436    -1.3312090354
   17      H      -1.5846568063    -1.9671608466     0.3256583695
 ----------------------------------------------------------------

 Frequency:       121.96                 131.77                 205.63
 Force Cnst:      0.0135                 0.0207                 0.1591
 Red. Mass:       1.5373                 2.0213                 6.3848
 IR Intens:      109.020                110.958                 11.168
 Frequency:       241.15                 274.05                 333.69
 Force Cnst:      0.1872                 0.2005                 0.1127
 Red. Mass:       5.4636                 4.5320                 1.7177
 IR Intens:       15.864                 27.963                 29.637
 Frequency:       359.00                 429.54                 520.04
 Force Cnst:      0.3728                 0.8311                 0.9890
 Red. Mass:       4.9094                 7.6453                 6.2066
 IR Intens:       37.823                  4.290                  2.830
 Frequency:       573.08                 617.06                 635.75
 Force Cnst:      1.1110                 1.1171                 1.3630
 Red. Mass:       5.7419                 4.9798                 5.7237
 IR Intens:        2.623                 31.479                  1.359
 Frequency:       739.30                 753.11                 830.01
 Force Cnst:      2.1047                 2.8252                 1.6445
 Red. Mass:       6.5359                 8.4543                 4.0516
 IR Intens:       14.193                 69.349                 43.597
 Frequency:       840.96                 881.14                 886.44
 Force Cnst:      2.2769                 1.0940                 1.4295
 Red. Mass:       5.4645                 2.3916                 3.0877
 IR Intens:       30.689                  9.530                 24.361
 Frequency:       936.35                 990.53                1012.75
 Force Cnst:      2.8047                 2.7814                 2.0594
 Red. Mass:       5.4294                 4.8115                 3.4079
 IR Intens:      104.728                 31.466                  2.163
 Frequency:      1026.37                1043.21                1075.49
 Force Cnst:      1.6953                 1.0182                 0.9772
 Red. Mass:       2.7315                 1.5880                 1.4339
 IR Intens:       72.007                 27.205                  5.666
 Frequency:      1101.34                1163.22                1192.68
 Force Cnst:      0.9954                 0.9943                 1.1980
 Red. Mass:       1.3929                 1.2472                 1.4295
 IR Intens:        4.785                  2.927                 33.051
 Frequency:      1241.79                1263.21                1280.67
 Force Cnst:      1.3589                 1.2534                 1.7258
 Red. Mass:       1.4957                 1.3332                 1.7860
 IR Intens:       11.869                 10.090                 64.631
 Frequency:      1302.15                1326.95                1332.88
 Force Cnst:      1.3322                 2.8648                 1.3259
 Red. Mass:       1.3336                 2.7615                 1.2667
 IR Intens:        1.332                155.902                  1.785
 Frequency:      1370.57                1392.90                1396.81
 Force Cnst:      1.9290                 2.1190                 1.8906
 Red. Mass:       1.7430                 1.8537                 1.6447
 IR Intens:       19.402                  5.907                  3.103
 Frequency:      1454.64                1478.37                3091.11
 Force Cnst:      3.5630                 2.7792                 6.1162
 Red. Mass:       2.8580                 2.1582                 1.0864
 IR Intens:       20.364                 56.366                 32.870
 Frequency:      3135.20                3152.59                3168.04
 Force Cnst:      6.2993                 6.3786                 6.4468
 Red. Mass:       1.0877                 1.0893                 1.0902
 IR Intens:        5.769                  9.264                 20.220
 Frequency:      3192.47                3235.43                3833.57
 Force Cnst:      6.5507                 6.7338                 9.2388
 Red. Mass:       1.0909                 1.0918                 1.0670
 IR Intens:       13.066                  6.126                155.466

 STANDARD THERMODYNAMIC QUANTITIES AT   298.15 K  AND     1.00 ATM

   This Molecule has  0 Imaginary Frequencies
   Zero point vibrational energy:       80.864 kcal/mol

   Atom    1 Element C  Has Mass   12.00000
   Atom    2 Element O  Has Mass   15.99491
   Atom    3 Element O  Has Mass   15.99491
   Atom    4 Element C  Has Mass   12.00000
   Atom    5 Element O  Has Mass   15.99491
   Atom    6 Element C  Has Mass   12.00000
   Atom    7 Element C  Has Mass   12.00000
   Atom    8 Element O  Has Mass   15.99491
   Atom    9 Element C  Has Mass   12.00000
   Atom   10 Element C  Has Mass   12.00000
   Atom   11 Element H  Has Mass    1.00783
   Atom   12 Element H  Has Mass    1.00783
   Atom   13 Element H  Has Mass    1.00783
   Atom   14 Element H  Has Mass    1.00783
   Atom   15 Element H  Has Mass    1.00783
   Atom   16 Element H  Has Mass    1.00783
   Atom   17 Element H  Has Mass    1.00783
   Molecular Mass:   143.034450 amu
   Principal axes and moments of inertia in amu*Bohr^2:
                             1           2           3
    Eigenvalues --      921.17486  1126.80111  1259.20938
          X              -0.60522     0.04056     0.79502
          Y               0.79560     0.06450     0.60237
          Z              -0.02685     0.99709    -0.07130
   Rotational Symmetry Number is   1
   The Molecule is an Asymmetric Top
   Translational Enthalpy:        0.889 kcal/mol
   Rotational Enthalpy:           0.889 kcal/mol
   Vibrational Enthalpy:         84.243 kcal/mol
   gas constant (RT):             0.592 kcal/mol
   Translational Entropy:        40.785  cal/mol.K
   Rotational Entropy:           28.659  cal/mol.K
   Vibrational Entropy:          18.703  cal/mol.K

   Total Enthalpy:               86.613 kcal/mol
   Total Entropy:                88.147  cal/mol.K
 Total job time:  19741.96s(wall), 285627.31s(cpu)
        *  Thank you very much for using Q-Chem.  Have a nice day.  *
