 Q-Chem 5.4, Q-Chem, Inc., Pleasanton, CA (2021)
 Q-Chem 5.4.1 for Intel X86 EM64T Linux

User input:
--------------------------------------------------------------
$molecule
0 2
C        -1.1291214218    0.1580436380    0.8954406153
O        -1.3300956827    1.1097394171   -0.1879289554
O        -0.0241093936    1.7603104363   -0.4472611495
C         0.0920327490    0.7504620500    1.5972359755
O         0.6087586941   -0.1298678923    2.5649063385
C         0.9248387844    1.0359991080    0.3385539111
C         1.3309732334   -0.1962499315   -0.4530823765
O         1.6570370003   -1.3763130676    0.2728039755
C         0.3858331772   -1.3279854772   -0.4650129452
C        -0.8478489872   -1.1870045676    0.3156896637
H        -2.0391346026    0.1968659922    1.4958760877
H        -0.1770405523    1.7168150157    2.0391762323
H         1.3344023562    0.3352918147    3.0121732664
H         1.7556728003    1.7241229581    0.5121298462
H         1.9468170725   -0.0050834812   -1.3307241206
H         0.3813715934   -2.0053949866   -1.3148986545
H        -1.6045209206   -1.9622239263    0.3024593895
$end

$rem
BASIS = 6-311++G(2df,2p)
GUI = 2
JOB_TYPE = Optimization
METHOD = wB97M-V
SCF_ALGORITHM = DIIS_GDM
MAX_SCF_CYCLES = 400
GEOM_OPT_MAX_CYCLES = 150
SCF_CONVERGENCE = 7
THRESH = 12
Solvent_method = SMD
$end
--------------------------------------------------------------

   18    -533.5643110320      6.45e-08  Convergence criterion met
 Total energy in the final basis set =     -533.5607147197
   17    -533.5646256288      6.82e-08  Convergence criterion met
 Total energy in the final basis set =     -533.5610593442
   17    -533.5646480261      7.54e-08  Convergence criterion met
 Total energy in the final basis set =     -533.5610817794
   17    -533.5646652318      7.76e-08  Convergence criterion met
 Total energy in the final basis set =     -533.5610958455
   17    -533.5646796066      8.13e-08  Convergence criterion met
 Total energy in the final basis set =     -533.5611070035
   17    -533.5646899077      8.31e-08  Convergence criterion met
 Total energy in the final basis set =     -533.5611151796
   17    -533.5646971994      8.56e-08  Convergence criterion met
 Total energy in the final basis set =     -533.5611213149
   17    -533.5646997966      8.37e-08  Convergence criterion met
 Total energy in the final basis set =     -533.5611234664

             Standard Nuclear Orientation (Angstroms)
    I     Atom           X                Y                Z
 ----------------------------------------------------------------
    1      C      -1.1170613374     0.1523573205     0.8966375857
    2      O      -1.3179571462     1.1078482845    -0.1818832667
    3      O      -0.0210660090     1.7570395897    -0.4405765917
    4      C       0.1053878512     0.7439502289     1.5895595307
    5      O       0.6319348056    -0.1239707648     2.5626672089
    6      C       0.9318189846     1.0277260477     0.3303832178
    7      C       1.3234246525    -0.1979349610    -0.4708674913
    8      O       1.6533304896    -1.3803364189     0.2445245938
    9      C       0.3773374675    -1.3223874023    -0.4836195547
   10      C      -0.8418567471    -1.1850765156     0.3095690843
   11      H      -2.0183744544     0.1912886864     1.5009370126
   12      H      -0.1614453926     1.7049249315     2.0294065564
   13      H       1.2441342314     0.3791544216     3.1099729876
   14      H       1.7640499265     1.7066670383     0.5024068414
   15      H       1.9319028887    -0.0029246966    -1.3460299488
   16      H       0.3649624956    -1.9936378436    -1.3312090354
   17      H      -1.5846568063    -1.9671608466     0.3256583695
 ----------------------------------------------------------------

   17    -533.5647005314      8.07e-08  Convergence criterion met
 Total energy in the final basis set =     -533.5611238852
 Final energy is   -533.561123885214
 **  OPTIMIZATION CONVERGED  **

                    Orbital Energies (a.u.)
 --------------------------------------------------------------

 Alpha MOs
 -- Occupied --
-19.4050 -19.4032 -19.3602 -19.3485 -10.4102 -10.4089 -10.4079 -10.4043
-10.4037 -10.3675  -1.2709  -1.2142  -1.1714  -1.0702  -0.9462  -0.8701
 -0.8250  -0.7613  -0.7274  -0.7023  -0.6686  -0.6370  -0.6113  -0.5851
 -0.5767  -0.5632  -0.5500  -0.5315  -0.5043  -0.4973  -0.4865  -0.4628
 -0.4537  -0.4205  -0.4066  -0.3925  -0.3589  -0.3148

 Beta MOs
 -- Occupied --
-19.4050 -19.4011 -19.3572 -19.3484 -10.4098 -10.4096 -10.4079 -10.4054
-10.4032 -10.3551  -1.2688  -1.2087  -1.1710  -1.0672  -0.9388  -0.8561
 -0.8220  -0.7574  -0.7232  -0.6981  -0.6633  -0.6334  -0.6073  -0.5795
 -0.5742  -0.5586  -0.5430  -0.5253  -0.4993  -0.4934  -0.4818  -0.4596
 -0.4476  -0.4129  -0.4044  -0.3883  -0.3551

          Ground-State Mulliken Net Atomic Charges

     Atom                 Charge (a.u.)    Spin (a.u.)
  --------------------------------------------------------
      1 C                    -0.043157      -0.016306
      2 O                    -0.146816       0.039729
      3 O                    -0.122545       0.003134
      4 C                    -0.118551       0.015670
      5 O                    -0.432599      -0.001145
      6 C                    -0.226995      -0.005662
      7 C                    -0.221224       0.041401
      8 O                    -0.278100       0.074502
      9 C                    -0.143900      -0.013618
     10 C                    -0.308746       0.861844
     11 H                     0.296337       0.006916
     12 H                     0.289793      -0.001183
     13 H                     0.343666       0.000394
     14 H                     0.271297       0.000717
     15 H                     0.274345       0.001948
     16 H                     0.242875       0.009222
     17 H                     0.324320      -0.017563
  --------------------------------------------------------
  Sum of atomic charges =     0.000000

                    Cartesian Multipole Moments
 -----------------------------------------------------------------
    Charge (ESU x 10^10)
                 0.0000
    Dipole Moment (Debye)
         X       0.6127      Y       0.9837      Z       1.5139
       Tot       1.9066
    Quadrupole Moments (Debye-Ang)
        XX     -55.5790     XY      11.5587     YY     -60.9069
        XZ      -1.9706     YZ      11.5453     ZZ     -52.6402

 Total job time:  3210.86s(wall), 24847.47s(cpu)
        *  Thank you very much for using Q-Chem.  Have a nice day.  *
