 Q-Chem 5.4, Q-Chem, Inc., Pleasanton, CA (2021)
 Q-Chem 5.4.1 for Intel X86 EM64T Linux

User input:
--------------------------------------------------------------
$molecule
0 2
C         0.8807695000   -0.3182937053   -0.1660397863
C         2.2197407002   -0.4296449134   -0.8355523781
O         2.7396016214    0.7946936988   -1.3235581324
C         0.1973027069    0.8211411207   -0.0684693409
C        -1.1219090464    0.8537847025    0.6272137632
O        -0.9258037272    1.2865496310    2.0300595576
O        -0.4982684747    2.5125625603    2.0999245609
C        -1.8453169091   -0.4814382808    0.7336629236
O        -2.6803047523   -0.5653695009   -0.4277931093
C        -0.9177716051   -1.6593142140    0.8052619230
C         0.3386378598   -1.5720654192    0.3804341732
H         2.9423547239   -0.8115710657   -0.1130332186
H         2.1515600193   -1.1707162673   -1.6378075458
H         2.1803347509    1.0975896515   -2.0471901788
H         0.5851037131    1.7487724462   -0.4643589050
H        -2.4694715293   -0.4469289538    1.6299649894
H        -3.1227039761   -1.4217672430   -0.4153109372
H        -1.3243249089   -2.5908158073    1.1775703502
H         0.9921146837   -2.4359402785    0.4022997370
H        -1.7962090503    1.5886294383    0.1918154544
$end

$rem
BASIS = 6-311++G(2df,2p)
GUI = 2
JOB_TYPE = Frequency
METHOD = wB97M-V
SOLVENT_METHOD = SMD
SCF_ALGORITHM = DIIS_GDM
MAX_SCF_CYCLES = 400
SCF_CONVERGENCE = 7
THRESH = 12
UNRESTRICTED = 1
SYMMETRY_IGNORE = 1
$end
--------------------------------------------------------------

   23    -572.8973335585      5.54e-08  Convergence criterion met
 Total energy in the final basis set =     -572.8924514291
   21    -572.8973324445      5.90e-08  Convergence criterion met
 Total energy in the final basis set =     -572.8924504037
   21    -572.8973326680      5.83e-08  Convergence criterion met
 Total energy in the final basis set =     -572.8924504473
   21    -572.8973323079      5.89e-08  Convergence criterion met
 Total energy in the final basis set =     -572.8924500948
   21    -572.8973321578      6.53e-08  Convergence criterion met
 Total energy in the final basis set =     -572.8924501095
   21    -572.8973329861      5.87e-08  Convergence criterion met
 Total energy in the final basis set =     -572.8924509183
   21    -572.8973331865      6.02e-08  Convergence criterion met
 Total energy in the final basis set =     -572.8924509931
   21    -572.8973345002      5.86e-08  Convergence criterion met
 Total energy in the final basis set =     -572.8924513543
   21    -572.8973335263      5.85e-08  Convergence criterion met
 Total energy in the final basis set =     -572.8924513924
   21    -572.8973330244      5.92e-08  Convergence criterion met
 Total energy in the final basis set =     -572.8924511613
   21    -572.8973335050      5.83e-08  Convergence criterion met
 Total energy in the final basis set =     -572.8924511081
   21    -572.8973334937      5.88e-08  Convergence criterion met
 Total energy in the final basis set =     -572.8924510986
   21    -572.8973329519      5.92e-08  Convergence criterion met
 Total energy in the final basis set =     -572.8924510869
   21    -572.8973332565      6.15e-08  Convergence criterion met
 Total energy in the final basis set =     -572.8924512504
   21    -572.8973334935      5.49e-08  Convergence criterion met
 Total energy in the final basis set =     -572.8924512397

                    Orbital Energies (a.u.)
 --------------------------------------------------------------

 Alpha MOs
 -- Occupied --
-19.4632 -19.4149 -19.3454 -19.3404 -10.4117 -10.4071 -10.3906 -10.3636
-10.3519 -10.3486 -10.3428  -1.3429  -1.1654  -1.1603  -1.0260  -0.9647
 -0.8866  -0.8669  -0.8061  -0.7466  -0.7189  -0.6651  -0.6516  -0.6312
 -0.6189  -0.6082  -0.5986  -0.5675  -0.5622  -0.5426  -0.5357  -0.5184
 -0.4960  -0.4876  -0.4617  -0.4254  -0.4188  -0.4047  -0.3966  -0.3943
 -0.3896  -0.3308

 Beta MOs
 -- Occupied --
-19.4523 -19.3966 -19.3454 -19.3404 -10.4121 -10.4071 -10.3906 -10.3637
-10.3518 -10.3486 -10.3425  -1.3163  -1.1653  -1.1603  -1.0060  -0.9541
 -0.8863  -0.8575  -0.8052  -0.7428  -0.7181  -0.6561  -0.6437  -0.6201
 -0.6016  -0.5988  -0.5884  -0.5614  -0.5439  -0.5408  -0.5344  -0.5068
 -0.4955  -0.4748  -0.4549  -0.4246  -0.4153  -0.3959  -0.3937  -0.3858
 -0.3295

          Ground-State Mulliken Net Atomic Charges

     Atom                 Charge (a.u.)    Spin (a.u.)
  --------------------------------------------------------
      1 C                     0.393752       0.004048
      2 C                    -0.400837       0.005396
      3 O                    -0.442085       0.000132
      4 C                    -0.290278       0.003936
      5 C                    -0.455577      -0.003814
      6 O                     0.077837       0.327689
      7 O                    -0.216865       0.658263
      8 C                    -0.407063       0.004969
      9 O                    -0.395188      -0.000387
     10 C                    -0.141529       0.004926
     11 C                    -0.276975      -0.012274
     12 H                     0.218495      -0.000316
     13 H                     0.232377      -0.000171
     14 H                     0.337544      -0.000086
     15 H                     0.294161       0.000132
     16 H                     0.234900      -0.000770
     17 H                     0.336136       0.000011
     18 H                     0.317726       0.000643
     19 H                     0.295305      -0.000240
     20 H                     0.288164       0.007912
  --------------------------------------------------------
  Sum of atomic charges =     0.000000

                    Cartesian Multipole Moments
 -----------------------------------------------------------------
    Charge (ESU x 10^10)
                 0.0000
    Dipole Moment (Debye)
         X      -1.9811      Y      -5.7852      Z      -2.2890
       Tot       6.5294
    Quadrupole Moments (Debye-Ang)
        XX     -66.0129     XY       1.0342     YY     -63.3936
        XZ      -3.4392     YZ      -9.2646     ZZ     -69.5477

             Standard Nuclear Orientation (Angstroms)
    I     Atom           X                Y                Z
 ----------------------------------------------------------------
    1      C       0.8807695000    -0.3182937053    -0.1660397863
    2      C       2.2197407002    -0.4296449134    -0.8355523781
    3      O       2.7396016214     0.7946936988    -1.3235581324
    4      C       0.1973027069     0.8211411207    -0.0684693409
    5      C      -1.1219090464     0.8537847025     0.6272137632
    6      O      -0.9258037272     1.2865496310     2.0300595576
    7      O      -0.4982684747     2.5125625603     2.0999245609
    8      C      -1.8453169091    -0.4814382808     0.7336629236
    9      O      -2.6803047523    -0.5653695009    -0.4277931093
   10      C      -0.9177716051    -1.6593142140     0.8052619230
   11      C       0.3386378598    -1.5720654192     0.3804341732
   12      H       2.9423547239    -0.8115710657    -0.1130332186
   13      H       2.1515600193    -1.1707162673    -1.6378075458
   14      H       2.1803347509     1.0975896515    -2.0471901788
   15      H       0.5851037131     1.7487724462    -0.4643589050
   16      H      -2.4694715293    -0.4469289538     1.6299649894
   17      H      -3.1227039761    -1.4217672430    -0.4153109372
   18      H      -1.3243249089    -2.5908158073     1.1775703502
   19      H       0.9921146837    -2.4359402785     0.4022997370
   20      H      -1.7962090503     1.5886294383     0.1918154544
 ----------------------------------------------------------------

 Frequency:        45.49                  62.30                 111.31
 Force Cnst:      0.0083                 0.0180                 0.0229
 Red. Mass:       6.8043                 7.8919                 3.1391
 IR Intens:        3.311                  0.428                  6.766
 Frequency:       133.13                 164.85                 218.80
 Force Cnst:      0.0490                 0.0978                 0.0405
 Red. Mass:       4.6923                 6.1058                 1.4372
 IR Intens:        0.812                  6.411                115.816
 Frequency:       238.82                 267.05                 326.12
 Force Cnst:      0.0735                 0.1683                 0.1168
 Red. Mass:       2.1864                 4.0053                 1.8647
 IR Intens:      102.874                 44.628                118.165
 Frequency:       355.60                 362.39                 413.88
 Force Cnst:      0.2173                 0.1683                 0.6346
 Red. Mass:       2.9169                 2.1755                 6.2873
 IR Intens:       80.184                 55.792                  7.634
 Frequency:       465.95                 541.43                 579.31
 Force Cnst:      0.3892                 0.7833                 0.8242
 Red. Mass:       3.0427                 4.5349                 4.1684
 IR Intens:       28.221                  2.509                  7.738
 Frequency:       593.49                 675.59                 774.56
 Force Cnst:      1.0520                 1.1233                 0.6204
 Red. Mass:       5.0694                 4.1770                 1.7550
 IR Intens:       15.435                 18.445                 50.342
 Frequency:       798.56                 858.18                 892.96
 Force Cnst:      1.2251                 0.7314                 1.3560
 Red. Mass:       3.2607                 1.6855                 2.8864
 IR Intens:        6.393                 20.873                 45.446
 Frequency:       926.97                 976.86                1000.68
 Force Cnst:      2.5708                 1.5406                 1.0003
 Red. Mass:       5.0779                 2.7402                 1.6954
 IR Intens:      146.387                 15.301                 56.611
 Frequency:      1011.12                1025.03                1064.43
 Force Cnst:      1.3024                 0.8392                 3.3132
 Red. Mass:       2.1622                 1.3557                 4.9631
 IR Intens:       28.608                  0.558                141.007
 Frequency:      1136.77                1140.62                1188.98
 Force Cnst:      1.1182                 3.3543                 0.8971
 Red. Mass:       1.4687                 4.3760                 1.0771
 IR Intens:       16.957                 85.964                 14.157
 Frequency:      1205.26                1227.25                1240.82
 Force Cnst:      1.5280                 1.0257                 1.3015
 Red. Mass:       1.7853                 1.1559                 1.4348
 IR Intens:      105.661                 27.140                 23.607
 Frequency:      1283.23                1307.07                1318.37
 Force Cnst:      7.3462                 1.2494                 1.5168
 Red. Mass:       7.5719                 1.2413                 1.4812
 IR Intens:       36.736                 11.434                 43.263
 Frequency:      1343.42                1378.20                1392.19
 Force Cnst:      1.4507                 1.6502                 1.4232
 Red. Mass:       1.3643                 1.4746                 1.2462
 IR Intens:       14.246                 13.763                 23.992
 Frequency:      1424.74                1443.59                1450.73
 Force Cnst:      1.8109                 2.4699                 1.9205
 Red. Mass:       1.5141                 2.0116                 1.5488
 IR Intens:       50.334                 26.742                  9.352
 Frequency:      1478.23                1702.36                1755.55
 Force Cnst:      1.6130                13.3288                12.5399
 Red. Mass:       1.2529                 7.8062                 6.9058
 IR Intens:       15.496                  6.368                 22.209
 Frequency:      3038.19                3057.97                3095.26
 Force Cnst:      5.7987                 5.9704                 6.1936
 Red. Mass:       1.0662                 1.0836                 1.0972
 IR Intens:       51.443                 37.316                 20.368
 Frequency:      3118.32                3179.26                3201.87
 Force Cnst:      6.2201                 6.4723                 6.6348
 Red. Mass:       1.0857                 1.0868                 1.0984
 IR Intens:       10.507                  7.971                 14.743
 Frequency:      3214.14                3823.51                3826.19
 Force Cnst:      6.6441                 9.1880                 9.1998
 Red. Mass:       1.0916                 1.0667                 1.0666
 IR Intens:        0.438                141.177                106.405

 STANDARD THERMODYNAMIC QUANTITIES AT   298.15 K  AND     1.00 ATM

   This Molecule has  0 Imaginary Frequencies
   Zero point vibrational energy:       98.436 kcal/mol

   Atom    1 Element C  Has Mass   12.00000
   Atom    2 Element C  Has Mass   12.00000
   Atom    3 Element O  Has Mass   15.99491
   Atom    4 Element C  Has Mass   12.00000
   Atom    5 Element C  Has Mass   12.00000
   Atom    6 Element O  Has Mass   15.99491
   Atom    7 Element O  Has Mass   15.99491
   Atom    8 Element C  Has Mass   12.00000
   Atom    9 Element O  Has Mass   15.99491
   Atom   10 Element C  Has Mass   12.00000
   Atom   11 Element C  Has Mass   12.00000
   Atom   12 Element H  Has Mass    1.00783
   Atom   13 Element H  Has Mass    1.00783
   Atom   14 Element H  Has Mass    1.00783
   Atom   15 Element H  Has Mass    1.00783
   Atom   16 Element H  Has Mass    1.00783
   Atom   17 Element H  Has Mass    1.00783
   Atom   18 Element H  Has Mass    1.00783
   Atom   19 Element H  Has Mass    1.00783
   Atom   20 Element H  Has Mass    1.00783
   Molecular Mass:   157.050110 amu
   Principal axes and moments of inertia in amu*Bohr^2:
                             1           2           3
    Eigenvalues --     1307.31936  2048.97022  2807.33127
          X               0.89441     0.24491     0.37423
          Y              -0.05828     0.89343    -0.44541
          Z              -0.44343     0.37657     0.81337
   Rotational Symmetry Number is   1
   The Molecule is an Asymmetric Top
   Translational Enthalpy:        0.889 kcal/mol
   Rotational Enthalpy:           0.889 kcal/mol
   Vibrational Enthalpy:        103.547 kcal/mol
   gas constant (RT):             0.592 kcal/mol
   Translational Entropy:        41.063  cal/mol.K
   Rotational Entropy:           30.398  cal/mol.K
   Vibrational Entropy:          32.248  cal/mol.K

   Total Enthalpy:              105.917 kcal/mol
   Total Entropy:               103.709  cal/mol.K
 Total job time:  58940.05s(wall), 454541.40s(cpu)
        *  Thank you very much for using Q-Chem.  Have a nice day.  *
