 Q-Chem 5.4, Q-Chem, Inc., Pleasanton, CA (2021)
 Q-Chem 5.4.1 for Intel X86 EM64T Linux

User input:
--------------------------------------------------------------
$molecule
0 2
C         0.8800249964   -0.3206087094   -0.1594880387
C         2.2287313727   -0.4120324980   -0.8262797368
O         2.6892321660    0.8118917248   -1.3733383961
C         0.1934180945    0.8243953059   -0.0647124078
C        -1.1265145747    0.8582521073    0.6380405750
O        -0.9215631731    1.2565939757    2.0503937659
O        -0.4119796144    2.4593801596    2.1309115927
C        -1.8605610822   -0.4773177724    0.7199016944
O        -2.6473334386   -0.5516191633   -0.4745808179
C        -0.9283983808   -1.6570773592    0.8175962654
C         0.3346802003   -1.5752243470    0.3907171523
H         2.9722736473   -0.7219513789   -0.0828607848
H         2.1977891668   -1.2022775812   -1.5902413997
H         2.0991987859    1.0317583169   -2.1126461481
H         0.5925155951    1.7544160839   -0.4559551107
H        -2.5150544510   -0.4422019314    1.6009038361
H        -3.1014435950   -1.4102685438   -0.4593029227
H        -1.3386022225   -2.5911164898    1.1933900810
H         0.9902541787   -2.4433181865    0.4185454942
H        -1.8012313716    1.6081838869    0.2180992066
$end

$rem
BASIS = 6-311++G(2df,2p)
GUI = 2
JOB_TYPE = Optimization
METHOD = wB97M-V
SCF_ALGORITHM = DIIS_GDM
MAX_SCF_CYCLES = 400
GEOM_OPT_MAX_CYCLES = 150
SCF_CONVERGENCE = 7
THRESH = 12
UNRESTRICTED = 1
Solvent_method = SMD
$end
--------------------------------------------------------------

   23    -572.8966730479      8.13e-08  Convergence criterion met
 Total energy in the final basis set =     -572.8917572466
   21    -572.8972840251      5.57e-08  Convergence criterion met
 Total energy in the final basis set =     -572.8923960647
   21    -572.8973144658      6.62e-08  Convergence criterion met
 Total energy in the final basis set =     -572.8924349064
   21    -572.8973261459      6.23e-08  Convergence criterion met
 Total energy in the final basis set =     -572.8924457786
   21    -572.8973294371      6.21e-08  Convergence criterion met
 Total energy in the final basis set =     -572.8924490359
   21    -572.8973319048      6.19e-08  Convergence criterion met
 Total energy in the final basis set =     -572.8924508193

             Standard Nuclear Orientation (Angstroms)
    I     Atom           X                Y                Z
 ----------------------------------------------------------------
    1      C       0.8807695000    -0.3182937053    -0.1660397863
    2      C       2.2197407002    -0.4296449134    -0.8355523781
    3      O       2.7396016214     0.7946936988    -1.3235581324
    4      C       0.1973027069     0.8211411207    -0.0684693409
    5      C      -1.1219090464     0.8537847025     0.6272137632
    6      O      -0.9258037272     1.2865496310     2.0300595576
    7      O      -0.4982684747     2.5125625603     2.0999245609
    8      C      -1.8453169091    -0.4814382808     0.7336629236
    9      O      -2.6803047523    -0.5653695009    -0.4277931093
   10      C      -0.9177716051    -1.6593142140     0.8052619230
   11      C       0.3386378598    -1.5720654192     0.3804341732
   12      H       2.9423547239    -0.8115710657    -0.1130332186
   13      H       2.1515600193    -1.1707162673    -1.6378075458
   14      H       2.1803347509     1.0975896515    -2.0471901788
   15      H       0.5851037131     1.7487724462    -0.4643589050
   16      H      -2.4694715293    -0.4469289538     1.6299649894
   17      H      -3.1227039761    -1.4217672430    -0.4153109372
   18      H      -1.3243249089    -2.5908158073     1.1775703502
   19      H       0.9921146837    -2.4359402785     0.4022997370
   20      H      -1.7962090503     1.5886294383     0.1918154544
 ----------------------------------------------------------------

   21    -572.8973335584      5.99e-08  Convergence criterion met
 Total energy in the final basis set =     -572.8924514289
 Final energy is   -572.892451428948
 **  OPTIMIZATION CONVERGED  **

                    Orbital Energies (a.u.)
 --------------------------------------------------------------

 Alpha MOs
 -- Occupied --
-19.4632 -19.4149 -19.3454 -19.3404 -10.4117 -10.4071 -10.3906 -10.3636
-10.3519 -10.3486 -10.3428  -1.3429  -1.1654  -1.1603  -1.0260  -0.9647
 -0.8866  -0.8669  -0.8061  -0.7466  -0.7189  -0.6651  -0.6516  -0.6312
 -0.6189  -0.6082  -0.5986  -0.5675  -0.5622  -0.5426  -0.5357  -0.5184
 -0.4960  -0.4876  -0.4617  -0.4254  -0.4189  -0.4047  -0.3966  -0.3943
 -0.3896  -0.3308

 Beta MOs
 -- Occupied --
-19.4523 -19.3966 -19.3454 -19.3404 -10.4121 -10.4071 -10.3906 -10.3637
-10.3518 -10.3486 -10.3425  -1.3162  -1.1653  -1.1603  -1.0060  -0.9541
 -0.8863  -0.8575  -0.8052  -0.7428  -0.7181  -0.6561  -0.6437  -0.6201
 -0.6016  -0.5988  -0.5884  -0.5614  -0.5439  -0.5408  -0.5344  -0.5068
 -0.4955  -0.4748  -0.4550  -0.4246  -0.4153  -0.3959  -0.3937  -0.3858
 -0.3295

          Ground-State Mulliken Net Atomic Charges

     Atom                 Charge (a.u.)    Spin (a.u.)
  --------------------------------------------------------
      1 C                     0.393688       0.004052
      2 C                    -0.400788       0.005395
      3 O                    -0.442081       0.000132
      4 C                    -0.290012       0.003927
      5 C                    -0.456008      -0.003803
      6 O                     0.077921       0.327727
      7 O                    -0.216935       0.658226
      8 C                    -0.407102       0.004972
      9 O                    -0.395183      -0.000388
     10 C                    -0.141526       0.004923
     11 C                    -0.277001      -0.012271
     12 H                     0.218496      -0.000316
     13 H                     0.232383      -0.000171
     14 H                     0.337547      -0.000086
     15 H                     0.294144       0.000130
     16 H                     0.234899      -0.000770
     17 H                     0.336138       0.000011
     18 H                     0.317730       0.000643
     19 H                     0.295303      -0.000240
     20 H                     0.288389       0.007906
  --------------------------------------------------------
  Sum of atomic charges =     0.000000

                    Cartesian Multipole Moments
 -----------------------------------------------------------------
    Charge (ESU x 10^10)
                 0.0000
    Dipole Moment (Debye)
         X      -1.9811      Y      -5.7858      Z      -2.2889
       Tot       6.5299
    Quadrupole Moments (Debye-Ang)
        XX     -66.0111     XY       1.0341     YY     -63.3937
        XZ      -3.4404     YZ      -9.2644     ZZ     -69.5486

 Total job time:  3483.18s(wall), 26894.69s(cpu)
        *  Thank you very much for using Q-Chem.  Have a nice day.  *
