 Q-Chem 5.4, Q-Chem, Inc., Pleasanton, CA (2021)
 Q-Chem 5.4.1 for Intel X86 EM64T Linux

User input:
--------------------------------------------------------------
$molecule
-1 2
C    3.0668065   -0.6540984   -1.2162432
O    1.6805604   -0.4474499   -1.0862545
C    3.6048262   -1.0422883    0.1676851
O    3.1607479   -2.3383594    0.4285005
C    3.1789705   -0.0314236    1.2357673
C    3.9745185    0.0245967    2.5202699
O    5.2014294    0.2072315    2.5384199
H    3.5654247    0.2510971   -1.5587544
H    1.3678742   -0.0130564   -1.8878335
H    2.1361429   -0.2271509    1.4728735
H    3.2266620    0.9764536    0.8147034
H    3.3815758    0.2492292    3.4118253
O    3.3552303   -1.6481288   -2.1675475
H    3.0539699   -2.4943058   -1.8095099
O    5.0312860   -1.1948780    0.0724945
O    5.6453671    0.0877682   -0.0467014
H    3.3007827   -2.5157085    1.3761468
H    5.7150879    0.3207857    0.9133247
O    3.6429891   -1.9669703    3.0814148
O    2.5524674   -2.0301731    3.8029207
$end

$rem
BASIS = 6-311++G(2df,2p)
GUI = 2
JOB_TYPE = Frequency
METHOD = wB97M-V
SOLVENT_METHOD = SMD
SCF_ALGORITHM = DIIS_GDM
MAX_SCF_CYCLES = 400
SCF_CONVERGENCE = 7
THRESH = 12
$end

--------------------------------------------------------------

   25    -759.0307744427      9.49e-08  Convergence criterion met
 Total energy in the final basis set =     -759.0254549309
   24    -759.0307710389      3.92e-08  Convergence criterion met
 Total energy in the final basis set =     -759.0254538579
   24    -759.0307760929      3.81e-08  Convergence criterion met
 Total energy in the final basis set =     -759.0254538433
   24    -759.0307704551      3.90e-08  Convergence criterion met
 Total energy in the final basis set =     -759.0254537001
   24    -759.0307762537      3.83e-08  Convergence criterion met
 Total energy in the final basis set =     -759.0254537350
   24    -759.0307696852      3.83e-08  Convergence criterion met
 Total energy in the final basis set =     -759.0254539053
   24    -759.0307773705      3.95e-08  Convergence criterion met
 Total energy in the final basis set =     -759.0254539094
   24    -759.0307777940      3.81e-08  Convergence criterion met
 Frequency:       -96.98                  39.11                  69.97
 Force Cnst:      0.0596                 0.0098                 0.0359
 Red. Mass:      10.7508                10.9183                12.4538
 IR Intens:      242.093                  4.638                  3.662
 Frequency:        81.93                 138.24                 153.87
 Force Cnst:      0.0285                 0.0570                 0.1089
 Red. Mass:       7.1996                 5.0616                 7.8066
 IR Intens:        2.998                  2.007                  1.495
 Frequency:       173.55                 208.16                 256.19
 Force Cnst:      0.1621                 0.2066                 0.1847
 Red. Mass:       9.1344                 8.0908                 4.7777
 IR Intens:       37.030                  2.950                 22.234
 Frequency:       266.80                 269.01                 286.23
 Force Cnst:      0.1564                 0.0508                 0.2061
 Red. Mass:       3.7295                 1.1916                 4.2703
 IR Intens:       19.138                188.401                 56.928
 Frequency:       301.57                 334.51                 364.37
 Force Cnst:      0.2443                 0.1752                 0.2193
 Red. Mass:       4.5591                 2.6571                 2.8030
 IR Intens:       25.254                 74.290                120.594
 Frequency:       403.59                 415.12                 500.50
 Force Cnst:      0.2722                 0.3375                 0.4617
 Red. Mass:       2.8366                 3.3245                 3.1281
 IR Intens:       66.404                138.696                  3.387
 Frequency:       525.99                 534.03                 549.26
 Force Cnst:      0.5752                 0.3741                 0.4286
 Red. Mass:       3.5290                 2.2265                 2.4112
 IR Intens:       38.223                172.874                147.681
 Frequency:       635.82                 750.63                 785.91
 Force Cnst:      1.3302                 0.9613                 0.5337
 Red. Mass:       5.5847                 2.8958                 1.4667
 IR Intens:       14.763                101.511                245.376
 Frequency:       811.08                 902.44                 963.20
 Force Cnst:      0.8109                 1.1908                 1.2919
 Red. Mass:       2.0921                 2.4818                 2.3634
 IR Intens:       13.896                 33.680                 59.041
 Frequency:      1018.50                1040.01                1056.41
 Force Cnst:      3.4635                 1.1267                 1.8063
 Red. Mass:       5.6668                 1.7680                 2.7472
 IR Intens:       17.125                  3.336                 20.428
 Frequency:      1097.65                1178.39                1214.27
 Force Cnst:      1.7464                 1.5520                 0.9744
 Red. Mass:       2.4601                 1.8970                 1.1217
 IR Intens:      344.225                129.734                 57.287
 Frequency:      1230.90                1267.81                1287.83
 Force Cnst:      1.4777                 2.4317                11.1331
 Red. Mass:       1.6554                 2.5678                11.3933
 IR Intens:      129.972                195.078                  6.059
 Frequency:      1294.31                1334.75                1361.02
 Force Cnst:      2.1887                 2.3858                 2.1479
 Red. Mass:       2.2175                 2.2729                 1.9681
 IR Intens:      328.775                 35.056                 75.627
 Frequency:      1393.56                1402.99                1429.90
 Force Cnst:      1.4583                 1.7052                 1.3223
 Red. Mass:       1.2745                 1.4703                 1.0977
 IR Intens:      133.229                146.738                 18.780
 Frequency:      1438.37                1488.09                1490.64
 Force Cnst:      1.5924                 1.7628                 2.1407
 Red. Mass:       1.3064                 1.3511                 1.6351
 IR Intens:      130.032                225.053                 61.470
 Frequency:      1612.37                3048.39                3068.78
 Force Cnst:      7.6220                 5.9571                 5.9304
 Red. Mass:       4.9762                 1.0880                 1.0688
 IR Intens:      549.685                125.609                  7.325
 Frequency:      3118.59                3144.37                3292.24
 Force Cnst:      6.2353                 6.3781                 6.8381
 Red. Mass:       1.0882                 1.0949                 1.0708
 IR Intens:       28.881                  7.574                929.785
 Frequency:      3580.31                3777.29                3825.10
 Force Cnst:      8.0649                 8.9578                 9.1960
 Red. Mass:       1.0678                 1.0656                 1.0668
 IR Intens:      802.177                131.555                138.564

 STANDARD THERMODYNAMIC QUANTITIES AT   298.15 K  AND     1.00 ATM

   This Molecule has  1 Imaginary Frequencies
   Zero point vibrational energy:       88.939 kcal/mol

   Atom    1 Element C  Has Mass   12.00000
   Atom    2 Element O  Has Mass   15.99491
   Atom    3 Element C  Has Mass   12.00000
   Atom    4 Element O  Has Mass   15.99491
   Atom    5 Element C  Has Mass   12.00000
   Atom    6 Element C  Has Mass   12.00000
   Atom    7 Element O  Has Mass   15.99491
   Atom    8 Element H  Has Mass    1.00783
   Atom    9 Element H  Has Mass    1.00783
   Atom   10 Element H  Has Mass    1.00783
   Atom   11 Element H  Has Mass    1.00783
   Atom   12 Element H  Has Mass    1.00783
   Atom   13 Element O  Has Mass   15.99491
   Atom   14 Element H  Has Mass    1.00783
   Atom   15 Element O  Has Mass   15.99491
   Atom   16 Element O  Has Mass   15.99491
   Atom   17 Element H  Has Mass    1.00783
   Atom   18 Element H  Has Mass    1.00783
   Atom   19 Element O  Has Mass   15.99491
   Atom   20 Element O  Has Mass   15.99491
   Molecular Mass:   184.021920 amu
   Principal axes and moments of inertia in amu*Bohr^2:
                             1           2           3
    Eigenvalues --     1385.29909  2615.86703  3203.67735
          X               0.12104     0.85608    -0.50247
          Y              -0.02801     0.50894     0.86035
          Z               0.99225    -0.09006     0.08558
   Rotational Symmetry Number is   1
   The Molecule is an Asymmetric Top
   Translational Enthalpy:        0.889 kcal/mol
   Rotational Enthalpy:           0.889 kcal/mol
   Vibrational Enthalpy:         95.233 kcal/mol
   gas constant (RT):             0.592 kcal/mol
   Translational Entropy:        41.536  cal/mol.K
   Rotational Entropy:           30.829  cal/mol.K
   Vibrational Entropy:          39.562  cal/mol.K

   Total Enthalpy:               97.603 kcal/mol
   Total Entropy:               111.928  cal/mol.K
 Total job time:  40381.85s(wall), 568605.18s(cpu)
        *  Thank you very much for using Q-Chem.  Have a nice day.  *
 Q-Chem 5.4, Q-Chem, Inc., Pleasanton, CA (2021)
 Q-Chem 5.4.1 for Intel X86 EM64T Linux

User input:
--------------------------------------------------------------

$molecule
read
$end

$rem
JOBTYPE            rpath
SCF_GUESS          read
RPATH_MAX_CYCLES   30
BASIS = 6-311++G(2df,2p)
METHOD = wB97M-V
SOLVENT_METHOD = SMD
SCF_ALGORITHM = DIIS_GDM
SCF_CONVERGENCE = 7
THRESH = 12
$end
--------------------------------------------------------------

 Total energy in the final basis set =     -759.0254549296
   24    -759.0308692457      8.27e-08  Convergence criterion met
 Total energy in the final basis set =     -759.0254908463
   23    -759.0281127462      7.47e-08  Convergence criterion met
 Total energy in the final basis set =     -759.0229123310
   23    -759.0308675807      9.95e-08  Convergence criterion met
 Total energy in the final basis set =     -759.0254913789
   22    -759.0288494161      9.12e-08  Convergence criterion met
 Total energy in the final basis set =     -759.0234510554
   23    -759.0308692769      9.71e-08  Convergence criterion met
 Total energy in the final basis set =     -759.0254925358
   24    -759.0308658496      6.66e-08  Convergence criterion met
 Total energy in the final basis set =     -759.0254918878
   24    -759.0308685864      6.79e-08  Convergence criterion met
 Total energy in the final basis set =     -759.0254928650

                    Orbital Energies (a.u.)
 --------------------------------------------------------------

 Alpha MOs
 -- Occupied --
-19.3964 -19.3806 -19.3654 -19.3614 -19.3487 -19.3457 -19.3444 -19.3226
-10.4623 -10.4447 -10.4398 -10.3454  -1.2706  -1.2505  -1.2076  -1.1746
 -1.1688  -1.1351  -1.0256  -0.9022  -0.8891  -0.8289  -0.7423  -0.7036
 -0.6862  -0.6467  -0.6334  -0.6151  -0.5920  -0.5766  -0.5680  -0.5620
 -0.5517  -0.5494  -0.5337  -0.5255  -0.5136  -0.4947  -0.4765  -0.4673
 -0.4494  -0.4369  -0.4279  -0.4094  -0.3999  -0.3864  -0.3629  -0.3427
 -0.3108

 Beta MOs
 -- Occupied --
-19.3964 -19.3806 -19.3524 -19.3484 -19.3457 -19.3455 -19.3444 -19.3229
-10.4623 -10.4447 -10.4399 -10.3454  -1.2705  -1.2219  -1.2075  -1.1739
 -1.1689  -1.1351  -1.0255  -0.9009  -0.8520  -0.8254  -0.7418  -0.7028
 -0.6862  -0.6466  -0.6325  -0.6138  -0.5916  -0.5739  -0.5671  -0.5514
 -0.5491  -0.5305  -0.5197  -0.5155  -0.4911  -0.4779  -0.4687  -0.4526
 -0.4486  -0.4364  -0.4277  -0.4094  -0.3997  -0.3860  -0.3617  -0.2912

          Ground-State Mulliken Net Atomic Charges

     Atom                 Charge (a.u.)    Spin (a.u.)
  --------------------------------------------------------
      1 C                    -0.074947       0.002574
      2 O                    -0.421254      -0.000119
      3 C                     0.156021       0.006643
      4 O                    -0.421830       0.002936
      5 C                    -0.447263      -0.000823
      6 C                    -0.131443      -0.005587
      7 O                    -0.486911      -0.007834
      8 H                     0.299118       0.000131
      9 H                     0.338975       0.000053
     10 H                     0.281508      -0.000492
     11 H                     0.303838      -0.000885
     12 H                     0.253896      -0.001191
     13 O                    -0.463760      -0.000038
     14 H                     0.350220      -0.000051
     15 O                    -0.197869       0.000770
     16 O                    -0.319172      -0.000223
     17 H                     0.331674       0.007988
     18 H                     0.341721       0.000077
     19 O                    -0.232860       0.427652
     20 O                    -0.459664       0.568421
  --------------------------------------------------------
  Sum of atomic charges =    -1.000000

                    Cartesian Multipole Moments
 -----------------------------------------------------------------
    Charge (ESU x 10^10)
                -4.8032
    Dipole Moment (Debye)
         X     -21.3113      Y      10.2450      Z     -10.9164
       Tot      26.0441
    Quadrupole Moments (Debye-Ang)
        XX    -178.8316     XY      33.4413     YY     -89.0210
        XZ     -34.0335     YZ      19.5581     ZZ    -117.6881

             Standard Nuclear Orientation (Angstroms)
    I     Atom           X                Y                Z
 ----------------------------------------------------------------
    1      C       3.0668065000    -0.6540984000    -1.2162432000
    2      O       1.6805604000    -0.4474499000    -1.0862545000
    3      C       3.6048262000    -1.0422883000     0.1676851000
    4      O       3.1607479000    -2.3383594000     0.4285005000
    5      C       3.1789705000    -0.0314236000     1.2357673000
    6      C       3.9745185000     0.0245967000     2.5202699000
    7      O       5.2014294000     0.2072315000     2.5384199000
    8      H       3.5654247000     0.2510971000    -1.5587544000
    9      H       1.3678742000    -0.0130564000    -1.8878335000
   10      H       2.1361429000    -0.2271509000     1.4728735000
   11      H       3.2266620000     0.9764536000     0.8147034000
   12      H       3.3815758000     0.2492292000     3.4118253000
   13      O       3.3552303000    -1.6481288000    -2.1675475000
   14      H       3.0539699000    -2.4943058000    -1.8095099000
   15      O       5.0312860000    -1.1948780000     0.0724945000
   16      O       5.6453671000     0.0877682000    -0.0467014000
   17      H       3.3007827000    -2.5157085000     1.3761468000
   18      H       5.7150879000     0.3207857000     0.9133247000
   19      O       3.6429891000    -1.9669703000     3.0814148000
   20      O       2.5524674000    -2.0301731000     3.8029207000
 ----------------------------------------------------------------

 Total job time:  5121.15s(wall), 72992.98s(cpu)
        *  Thank you very much for using Q-Chem.  Have a nice day.  *
