 Q-Chem 5.4, Q-Chem, Inc., Pleasanton, CA (2021)
 Q-Chem 5.4.1 for Intel X86 EM64T Linux

User input:
--------------------------------------------------------------
$molecule
-1 2
C    3.0566807   -0.6440855   -1.2434678
O    1.6708130   -0.4214322   -1.1323478
C    3.5731200   -1.0625794    0.1400414
O    3.0903007   -2.3586694    0.3636560
C    3.1525753   -0.0599283    1.2170720
C    3.9357118   -0.0590888    2.5309354
O    5.2228525    0.1978784    2.5929716
H    3.5732325    0.2611511   -1.5586033
H    1.3761075    0.0256945   -1.9337089
H    2.1014229   -0.2456045    1.4298959
H    3.2216433    0.9521538    0.8165849
H    3.3611715    0.4022473    3.4123364
O    3.3462661   -1.6214513   -2.2121262
H    3.0428731   -2.4733526   -1.8699843
O    4.9927252   -1.2430738    0.0560527
O    5.6354988    0.0346103    0.0431022
H    3.3361366   -2.6313002    1.2569913
H    5.6002278    0.2300318    1.0581701
O    3.8501431   -1.7588662    3.2684575
O    2.7032169   -2.0111645    3.8274728
$end

$rem
BASIS = 6-311++G(2df,2p)
GUI = 2
JOB_TYPE = Frequency
METHOD = wB97M-V
SCF_ALGORITHM = DIIS_GDM
MAX_SCF_CYCLES = 400
SCF_CONVERGENCE = 6
THRESH = 11
solvent_method = SMD
$end

--------------------------------------------------------------

   21    -759.0230434522      7.10e-07  Convergence criterion met
 Total energy in the final basis set =     -759.0182794311
   18    -759.0230394516      7.13e-07  Convergence criterion met
 Total energy in the final basis set =     -759.0182775949
   18    -759.0230456933      7.17e-07  Convergence criterion met
 Total energy in the final basis set =     -759.0182790979
   18    -759.0230399426      7.15e-07  Convergence criterion met
 Total energy in the final basis set =     -759.0182784523
   18    -759.0230447818      7.13e-07  Convergence criterion met
 Total energy in the final basis set =     -759.0182779826
   18    -759.0230372430      7.16e-07  Convergence criterion met
 Total energy in the final basis set =     -759.0182769376
   18    -759.0230478382      7.14e-07  Convergence criterion met
 Total energy in the final basis set =     -759.0182798744
   18    -759.0230473341      7.15e-07  Convergence criterion met
 Frequency:      -190.27                  64.75                  76.54
 Force Cnst:      0.2069                 0.0277                 0.0281
 Red. Mass:       9.6988                11.2008                 8.1322
 IR Intens:      448.170                  4.037                  5.771
 Frequency:        80.44                 106.82                 167.13
 Force Cnst:      0.0327                 0.0400                 0.1259
 Red. Mass:       8.5813                 5.9522                 7.6529
 IR Intens:        4.206                  8.944                  3.005
 Frequency:       181.24                 243.20                 256.56
 Force Cnst:      0.0976                 0.0530                 0.2239
 Red. Mass:       5.0427                 1.5222                 5.7745
 IR Intens:       10.049                199.195                  4.460
 Frequency:       274.93                 282.00                 285.53
 Force Cnst:      0.0752                 0.1474                 0.0911
 Red. Mass:       1.6881                 3.1468                 1.8975
 IR Intens:      121.737                184.428                 55.801
 Frequency:       301.50                 345.33                 353.97
 Force Cnst:      0.2095                 0.1892                 0.4203
 Red. Mass:       3.9124                 2.6933                 5.6931
 IR Intens:       58.860                 54.966                 21.787
 Frequency:       373.07                 402.59                 478.88
 Force Cnst:      0.1727                 0.2305                 0.8630
 Red. Mass:       2.1055                 2.4137                 6.3872
 IR Intens:       53.609                 26.026                179.133
 Frequency:       513.51                 526.88                 561.40
 Force Cnst:      1.0065                 0.8140                 1.1882
 Red. Mass:       6.4781                 4.9768                 6.3987
 IR Intens:       73.906                 27.152                127.970
 Frequency:       644.61                 767.66                 803.63
 Force Cnst:      1.5798                 1.2328                 1.9714
 Red. Mass:       6.4529                 3.5507                 5.1810
 IR Intens:        1.057                155.451                 93.565
 Frequency:       894.75                 936.51                1003.38
 Force Cnst:      1.0970                 1.4438                 1.7613
 Red. Mass:       2.3257                 2.7940                 2.9693
 IR Intens:        4.255                 27.351                 32.370
 Frequency:      1041.35                1063.23                1090.60
 Force Cnst:      3.1416                 0.8027                 1.4857
 Red. Mass:       4.9171                 1.2051                 2.1200
 IR Intens:       46.057                233.341                 64.109
 Frequency:      1168.56                1182.21                1220.40
 Force Cnst:      1.2435                 1.5854                 1.2965
 Red. Mass:       1.5456                 1.9253                 1.4775
 IR Intens:      528.621                164.791                 79.668
 Frequency:      1241.87                1252.55                1271.71
 Force Cnst:      2.1073                 1.5611                 1.8402
 Red. Mass:       2.3191                 1.6888                 1.9312
 IR Intens:      452.786                 65.996                311.633
 Frequency:      1288.98                1295.22                1337.04
 Force Cnst:      9.7544                 1.9232                 2.0597
 Red. Mass:       9.9646                 1.9457                 1.9555
 IR Intens:       49.837                143.113                  3.288
 Frequency:      1366.86                1386.39                1425.09
 Force Cnst:      2.7956                 1.8504                 1.3037
 Red. Mass:       2.5397                 1.6340                 1.0895
 IR Intens:      130.192                 59.652                 11.327
 Frequency:      1437.91                1479.59                1489.57
 Force Cnst:      1.5918                 1.8203                 2.2739
 Red. Mass:       1.3067                 1.4113                 1.7394
 IR Intens:       97.327                 29.130                 74.990
 Frequency:      1613.09                2543.16                2583.39
 Force Cnst:      1.6780                 4.1337                 4.2752
 Red. Mass:       1.0945                 1.0848                 1.0873
 IR Intens:      145.027               1785.750                310.295
 Frequency:      3090.44                3117.21                3140.45
 Force Cnst:      5.9814                 6.2296                 6.3986
 Red. Mass:       1.0629                 1.0881                 1.1012
 IR Intens:        1.813                 29.278                  4.032
 Frequency:      3776.63                3779.86                3826.16
 Force Cnst:      8.9552                 8.9815                 9.2006
 Red. Mass:       1.0657                 1.0670                 1.0667
 IR Intens:      155.622                224.519                137.771

 STANDARD THERMODYNAMIC QUANTITIES AT   298.15 K  AND     1.00 ATM

   This Molecule has  1 Imaginary Frequencies
   Zero point vibrational energy:       87.828 kcal/mol

   Atom    1 Element C  Has Mass   12.00000
   Atom    2 Element O  Has Mass   15.99491
   Atom    3 Element C  Has Mass   12.00000
   Atom    4 Element O  Has Mass   15.99491
   Atom    5 Element C  Has Mass   12.00000
   Atom    6 Element C  Has Mass   12.00000
   Atom    7 Element O  Has Mass   15.99491
   Atom    8 Element H  Has Mass    1.00783
   Atom    9 Element H  Has Mass    1.00783
   Atom   10 Element H  Has Mass    1.00783
   Atom   11 Element H  Has Mass    1.00783
   Atom   12 Element H  Has Mass    1.00783
   Atom   13 Element O  Has Mass   15.99491
   Atom   14 Element H  Has Mass    1.00783
   Atom   15 Element O  Has Mass   15.99491
   Atom   16 Element O  Has Mass   15.99491
   Atom   17 Element H  Has Mass    1.00783
   Atom   18 Element H  Has Mass    1.00783
   Atom   19 Element O  Has Mass   15.99491
   Atom   20 Element O  Has Mass   15.99491
   Molecular Mass:   184.021920 amu
   Principal axes and moments of inertia in amu*Bohr^2:
                             1           2           3
    Eigenvalues --     1315.66810  2733.04352  3261.13548
          X               0.16883     0.86239    -0.47726
          Y              -0.00773     0.48536     0.87428
          Z               0.98561    -0.14392     0.08862
   Rotational Symmetry Number is   1
   The Molecule is an Asymmetric Top
   Translational Enthalpy:        0.889 kcal/mol
   Rotational Enthalpy:           0.889 kcal/mol
   Vibrational Enthalpy:         94.049 kcal/mol
   gas constant (RT):             0.592 kcal/mol
   Translational Entropy:        41.536  cal/mol.K
   Rotational Entropy:           30.839  cal/mol.K
   Vibrational Entropy:          38.346  cal/mol.K

   Total Enthalpy:               96.419 kcal/mol
   Total Entropy:               110.721  cal/mol.K
 Total job time:  28721.04s(wall), 403299.53s(cpu)
        *  Thank you very much for using Q-Chem.  Have a nice day.  *
 Q-Chem 5.4, Q-Chem, Inc., Pleasanton, CA (2021)
 Q-Chem 5.4.1 for Intel X86 EM64T Linux

User input:
--------------------------------------------------------------

$rem
JOBTYPE = ts
SCF_GUESS = read
GEOM_OPT_HESSIAN = read
MAX_SCF_CYCLES = 350
GEOM_OPT_DMAX = 60
GEOM_OPT_MAX_CYCLES = 250
METHOD = wB97M-v
BASIS = 6-311++G(2df,2p)
SCF_CONVERGENCE = 7
THRESH = 12
SCF_ALGORITHM = DIIS_GDM
solvent_method = SMD
$end

$molecule
read
$end
--------------------------------------------------------------

   23    -759.0307733069      8.91e-08  Convergence criterion met
 Total energy in the final basis set =     -759.0254546837
   24    -759.0307670468      5.58e-08  Convergence criterion met
 Total energy in the final basis set =     -759.0254525050
   23    -759.0307731483      9.99e-08  Convergence criterion met
 Total energy in the final basis set =     -759.0254549838
   23    -759.0307735626      9.04e-08  Convergence criterion met
 Total energy in the final basis set =     -759.0254549711
   23    -759.0307572784      8.41e-08  Convergence criterion met
 Total energy in the final basis set =     -759.0254489868
   23    -759.0307737865      8.49e-08  Convergence criterion met
 Total energy in the final basis set =     -759.0254549714

             Standard Nuclear Orientation (Angstroms)
    I     Atom           X                Y                Z
 ----------------------------------------------------------------
    1      C       3.0668064614    -0.6540983559    -1.2162432430
    2      O       1.6805603653    -0.4474499495    -1.0862544632
    3      C       3.6048261822    -1.0422882934     0.1676851272
    4      O       3.1607478793    -2.3383594130     0.4285004694
    5      C       3.1789705248    -0.0314236434     1.2357672913
    6      C       3.9745185276     0.0245966686     2.5202699063
    7      O       5.2014293825     0.2072314810     2.5384199201
    8      H       3.5654246555     0.2510971074    -1.5587544408
    9      H       1.3678742339    -0.0130563979    -1.8878335478
   10      H       2.1361429249    -0.2271509471     1.4728735248
   11      H       3.2266619701     0.9764535830     0.8147033796
   12      H       3.3815758191     0.2492291643     3.4118253375
   13      O       3.3552302764    -1.6481287690    -2.1675475295
   14      H       3.0539698664    -2.4943058248    -1.8095099372
   15      O       5.0312859802    -1.1948779806     0.0724944724
   16      O       5.6453670733     0.0877682334    -0.0467014117
   17      H       3.3007827358    -2.5157084764     1.3761467969
   18      H       5.7150879360     0.3207857138     0.9133246579
   19      O       3.6429890620    -1.9669702999     3.0814148449
   20      O       2.5524674434    -2.0301731009     3.8029207448
 ----------------------------------------------------------------

   23    -759.0307744416      8.61e-08  Convergence criterion met
 Total energy in the final basis set =     -759.0254549297
 Final energy is   -759.025454929678
 **  OPTIMIZATION CONVERGED  **

                    Orbital Energies (a.u.)
 --------------------------------------------------------------

 Alpha MOs
 -- Occupied --
-19.3958 -19.3794 -19.3714 -19.3648 -19.3492 -19.3456 -19.3443 -19.3169
-10.4617 -10.4446 -10.4387 -10.3443  -1.2699  -1.2563  -1.2075  -1.1746
 -1.1628  -1.1350  -1.0247  -0.9031  -0.8916  -0.8282  -0.7420  -0.7037
 -0.6858  -0.6461  -0.6329  -0.6151  -0.5899  -0.5770  -0.5684  -0.5641
 -0.5556  -0.5483  -0.5341  -0.5255  -0.5142  -0.4934  -0.4755  -0.4652
 -0.4483  -0.4355  -0.4277  -0.4092  -0.3995  -0.3855  -0.3609  -0.3452
 -0.3139

 Beta MOs
 -- Occupied --
-19.3959 -19.3794 -19.3584 -19.3489 -19.3487 -19.3456 -19.3443 -19.3172
-10.4617 -10.4446 -10.4388 -10.3444  -1.2697  -1.2277  -1.2074  -1.1740
 -1.1630  -1.1350  -1.0246  -0.9003  -0.8558  -0.8249  -0.7415  -0.7028
 -0.6857  -0.6459  -0.6321  -0.6134  -0.5894  -0.5736  -0.5668  -0.5530
 -0.5475  -0.5301  -0.5226  -0.5164  -0.4906  -0.4770  -0.4688  -0.4532
 -0.4477  -0.4349  -0.4275  -0.4092  -0.3993  -0.3851  -0.3593  -0.2945

          Ground-State Mulliken Net Atomic Charges

     Atom                 Charge (a.u.)    Spin (a.u.)
  --------------------------------------------------------
      1 C                    -0.074554       0.002561
      2 O                    -0.422006      -0.000121
      3 C                     0.161045       0.006558
      4 O                    -0.415392       0.002138
      5 C                    -0.462316      -0.000640
      6 C                    -0.127954      -0.006802
      7 O                    -0.516947      -0.008414
      8 H                     0.298439       0.000124
      9 H                     0.339038       0.000054
     10 H                     0.281131      -0.000527
     11 H                     0.303541      -0.000936
     12 H                     0.253990      -0.001140
     13 O                    -0.464125      -0.000037
     14 H                     0.349814      -0.000063
     15 O                    -0.200624       0.000889
     16 O                    -0.323368      -0.000238
     17 H                     0.325884       0.007081
     18 H                     0.343588       0.000102
     19 O                    -0.193657       0.424825
     20 O                    -0.455526       0.574585
  --------------------------------------------------------
  Sum of atomic charges =    -1.000000

                    Cartesian Multipole Moments
 -----------------------------------------------------------------
    Charge (ESU x 10^10)
                -4.8032
    Dipole Moment (Debye)
         X     -21.6382      Y       9.7321      Z     -10.6810
       Tot      26.0194
    Quadrupole Moments (Debye-Ang)
        XX    -181.5429     XY      31.8376     YY     -87.8321
        XZ     -34.1678     YZ      17.8990     ZZ    -116.5281

 Total job time:  11271.21s(wall), 157468.98s(cpu)
        *  Thank you very much for using Q-Chem.  Have a nice day.  *
