 Q-Chem 5.4, Q-Chem, Inc., Pleasanton, CA (2021)
 Q-Chem 5.4.1 for Intel X86 EM64T Linux

User input:
--------------------------------------------------------------
$molecule
0 2
C         0.8665396136    0.0998288022    0.0302133654
C         2.3238157108    0.4748175249    0.0049630083
O         3.0988602492   -0.3210830296    0.9074558042
C        -0.0759809430    0.9935917529    0.4149025771
C        -1.5327016957    0.6647814744    0.4746295466
O        -2.0542772418    0.8766958847    1.8112975699
C        -1.8336241065   -0.7443746067    0.0932134581
C        -0.8624872600   -1.6126225539   -0.2904468368
C         0.4909361850   -1.2211320982   -0.3402098647
H         2.7451523243    0.2916938208   -0.9826807883
H         2.4411412938    1.5349825972    0.2361891199
H         2.7796812843   -0.1468312813    1.7997764593
H         0.2091385125    1.9991315596    0.7038354952
H        -2.0825241968    1.3405927865   -0.1941756193
H        -2.0519303153    1.8261493337    1.9797142623
H        -2.8707273808   -1.0509346850    0.1336595970
H        -1.1282295446   -2.6251123608   -0.5657823064
H         1.2506583106   -1.9259002218   -0.6487125477
$end

$rem
BASIS = 6-311++G(2df,2p)
GUI = 2
JOB_TYPE = Frequency
METHOD = wB97M-V
SOLVENT_METHOD = SMD
SCF_ALGORITHM = DIIS_GDM
MAX_SCF_CYCLES = 400
SCF_CONVERGENCE = 7
THRESH = 12
UNRESTRICTED = 1
SYMMETRY_IGNORE = 1
$end
--------------------------------------------------------------

   19    -422.5332387535      7.06e-08  Convergence criterion met
 Total energy in the final basis set =     -422.5274636276
   16    -422.5332377458      5.51e-08  Convergence criterion met
 Total energy in the final basis set =     -422.5274624880
   16    -422.5332373595      7.37e-08  Convergence criterion met
 Total energy in the final basis set =     -422.5274623631
   16    -422.5332375028      6.96e-08  Convergence criterion met
 Total energy in the final basis set =     -422.5274624738
   16    -422.5332380142      5.75e-08  Convergence criterion met
 Total energy in the final basis set =     -422.5274627896
   16    -422.5332385158      9.20e-08  Convergence criterion met
 Total energy in the final basis set =     -422.5274632067
   16    -422.5332382474      5.41e-08  Convergence criterion met
 Total energy in the final basis set =     -422.5274633050
   16    -422.5332394502      6.19e-08  Convergence criterion met
 Total energy in the final basis set =     -422.5274635553
   16    -422.5332387486      5.46e-08  Convergence criterion met
 Total energy in the final basis set =     -422.5274635219
   16    -422.5332387068      5.47e-08  Convergence criterion met
 Total energy in the final basis set =     -422.5274632602
   16    -422.5332380657      5.45e-08  Convergence criterion met
 Total energy in the final basis set =     -422.5274632593
   16    -422.5332382485      5.46e-08  Convergence criterion met
 Total energy in the final basis set =     -422.5274632766
   16    -422.5332386030      5.47e-08  Convergence criterion met
 Total energy in the final basis set =     -422.5274633215
   16    -422.5332386224      5.44e-08  Convergence criterion met
 Total energy in the final basis set =     -422.5274635445
   16    -422.5332387188      5.50e-08  Convergence criterion met
 Total energy in the final basis set =     -422.5274635443

                    Orbital Energies (a.u.)
 --------------------------------------------------------------

 Alpha MOs
 -- Occupied --
-19.3380 -19.3371 -10.3993 -10.3849 -10.3514 -10.3497 -10.3476 -10.3463
-10.3431  -1.1543  -1.1533  -0.9783  -0.8933  -0.8634  -0.7970  -0.7416
 -0.7036  -0.6352  -0.6255  -0.6053  -0.5798  -0.5687  -0.5485  -0.5248
 -0.5211  -0.4882  -0.4771  -0.4507  -0.4430  -0.4308  -0.3987  -0.3891
 -0.3607  -0.2700

 Beta MOs
 -- Occupied --
-19.3372 -19.3364 -10.3999 -10.3848 -10.3521 -10.3457 -10.3436 -10.3419
-10.3415  -1.1538  -1.1506  -0.9719  -0.8898  -0.8541  -0.7922  -0.7333
 -0.6996  -0.6330  -0.6194  -0.6015  -0.5750  -0.5648  -0.5480  -0.5211
 -0.5180  -0.4825  -0.4727  -0.4432  -0.4302  -0.4221  -0.3931  -0.3850
 -0.3439

          Ground-State Mulliken Net Atomic Charges

     Atom                 Charge (a.u.)    Spin (a.u.)
  --------------------------------------------------------
      1 C                     0.592550      -0.135928
      2 C                    -0.513893       0.007297
      3 O                    -0.399469      -0.001983
      4 C                    -0.484699       0.320392
      5 C                    -0.789678       0.022597
      6 O                    -0.405616       0.017883
      7 C                    -0.000948       0.369919
      8 C                    -0.344133      -0.130206
      9 C                    -0.132843       0.510895
     10 H                     0.207287      -0.002505
     11 H                     0.233026      -0.000497
     12 H                     0.328148       0.001370
     13 H                     0.291082      -0.008819
     14 H                     0.189488       0.041245
     15 H                     0.329990       0.003826
     16 H                     0.307752      -0.010079
     17 H                     0.299757       0.005814
     18 H                     0.292198      -0.011222
  --------------------------------------------------------
  Sum of atomic charges =    -0.000000

                    Cartesian Multipole Moments
 -----------------------------------------------------------------
    Charge (ESU x 10^10)
                -0.0000
    Dipole Moment (Debye)
         X      -0.9663      Y       3.0824      Z      -1.1574
       Tot       3.4314
    Quadrupole Moments (Debye-Ang)
        XX     -62.8294     XY       1.0872     YY     -45.2698
        XZ       3.1730     YZ       5.4644     ZZ     -56.4088

             Standard Nuclear Orientation (Angstroms)
    I     Atom           X                Y                Z
 ----------------------------------------------------------------
    1      C       0.8665396136     0.0998288022     0.0302133654
    2      C       2.3238157108     0.4748175249     0.0049630083
    3      O       3.0988602492    -0.3210830296     0.9074558042
    4      C      -0.0759809430     0.9935917529     0.4149025771
    5      C      -1.5327016957     0.6647814744     0.4746295466
    6      O      -2.0542772418     0.8766958847     1.8112975699
    7      C      -1.8336241065    -0.7443746067     0.0932134581
    8      C      -0.8624872600    -1.6126225539    -0.2904468368
    9      C       0.4909361850    -1.2211320982    -0.3402098647
   10      H       2.7451523243     0.2916938208    -0.9826807883
   11      H       2.4411412938     1.5349825972     0.2361891199
   12      H       2.7796812843    -0.1468312813     1.7997764593
   13      H       0.2091385125     1.9991315596     0.7038354952
   14      H      -2.0825241968     1.3405927865    -0.1941756193
   15      H      -2.0519303153     1.8261493337     1.9797142623
   16      H      -2.8707273808    -1.0509346850     0.1336595970
   17      H      -1.1282295446    -2.6251123608    -0.5657823064
   18      H       1.2506583106    -1.9259002218    -0.6487125477
 ----------------------------------------------------------------

 Frequency:        53.78                 104.87                 134.59
 Force Cnst:      0.0070                 0.0248                 0.0365
 Red. Mass:       4.1326                 3.8311                 3.4174
 IR Intens:        4.928                  2.524                  5.270
 Frequency:       239.97                 258.69                 267.41
 Force Cnst:      0.0849                 0.0481                 0.0529
 Red. Mass:       2.5030                 1.2201                 1.2550
 IR Intens:       19.053                234.316                158.724
 Frequency:       355.78                 368.04                 442.36
 Force Cnst:      0.2973                 0.2047                 0.4015
 Red. Mass:       3.9865                 2.5655                 3.4823
 IR Intens:       19.768                 41.244                 19.809
 Frequency:       484.32                 520.94                 619.32
 Force Cnst:      0.5295                 0.6986                 1.2184
 Red. Mass:       3.8311                 4.3689                 5.3915
 IR Intens:        7.100                 10.780                  5.359
 Frequency:       627.46                 736.79                 787.24
 Force Cnst:      0.3584                 0.6017                 1.0090
 Red. Mass:       1.5451                 1.8811                 2.7634
 IR Intens:       99.741                 30.717                 10.147
 Frequency:       837.13                 861.49                 904.20
 Force Cnst:      0.7265                 0.8346                 1.1977
 Red. Mass:       1.7596                 1.9085                 2.4864
 IR Intens:        3.982                 42.277                 15.632
 Frequency:       954.69                 971.51                1002.36
 Force Cnst:      1.2105                 1.7471                 0.8069
 Red. Mass:       2.2541                 3.1417                 1.3630
 IR Intens:       40.097                112.692                  7.548
 Frequency:      1018.27                1038.90                1069.27
 Force Cnst:      2.1476                 2.9120                 1.3081
 Red. Mass:       3.5154                 4.5792                 1.9418
 IR Intens:      170.178                134.829                 17.995
 Frequency:      1113.50                1162.87                1194.57
 Force Cnst:      1.1515                 0.8783                 1.0100
 Red. Mass:       1.5763                 1.1024                 1.2013
 IR Intens:        8.760                  0.208                 40.666
 Frequency:      1200.71                1210.13                1316.62
 Force Cnst:      0.9134                 1.7575                 1.6799
 Red. Mass:       1.0753                 2.0369                 1.6448
 IR Intens:       98.443                 26.463                  5.257
 Frequency:      1326.03                1350.78                1378.90
 Force Cnst:      1.7520                 1.6858                 1.4051
 Red. Mass:       1.6912                 1.5681                 1.2542
 IR Intens:        8.942                 28.142                 12.925
 Frequency:      1407.68                1413.22                1454.49
 Force Cnst:      2.0666                 1.5686                 2.3718
 Red. Mass:       1.7701                 1.3330                 1.9029
 IR Intens:       22.768                 57.521                 19.397
 Frequency:      1484.79                1579.25                1639.99
 Force Cnst:      1.4160                 5.8636                 9.7605
 Red. Mass:       1.0901                 3.9903                 6.1594
 IR Intens:        5.475                  1.209                  2.242
 Frequency:      2977.12                3060.40                3114.81
 Force Cnst:      5.6370                 5.8581                 6.3126
 Red. Mass:       1.0795                 1.0616                 1.1043
 IR Intens:       40.616                 64.195                 34.372
 Frequency:      3172.65                3184.63                3199.14
 Force Cnst:      6.4633                 6.4908                 6.5798
 Red. Mass:       1.0898                 1.0862                 1.0912
 IR Intens:       15.788                  6.235                 21.348
 Frequency:      3209.95                3816.95                3821.44
 Force Cnst:      6.6482                 9.1550                 9.1775
 Red. Mass:       1.0951                 1.0665                 1.0666
 IR Intens:       16.061                109.562                 97.738

 STANDARD THERMODYNAMIC QUANTITIES AT   298.15 K  AND     1.00 ATM

   This Molecule has  0 Imaginary Frequencies
   Zero point vibrational energy:       92.136 kcal/mol

   Atom    1 Element C  Has Mass   12.00000
   Atom    2 Element C  Has Mass   12.00000
   Atom    3 Element O  Has Mass   15.99491
   Atom    4 Element C  Has Mass   12.00000
   Atom    5 Element C  Has Mass   12.00000
   Atom    6 Element O  Has Mass   15.99491
   Atom    7 Element C  Has Mass   12.00000
   Atom    8 Element C  Has Mass   12.00000
   Atom    9 Element C  Has Mass   12.00000
   Atom   10 Element H  Has Mass    1.00783
   Atom   11 Element H  Has Mass    1.00783
   Atom   12 Element H  Has Mass    1.00783
   Atom   13 Element H  Has Mass    1.00783
   Atom   14 Element H  Has Mass    1.00783
   Atom   15 Element H  Has Mass    1.00783
   Atom   16 Element H  Has Mass    1.00783
   Atom   17 Element H  Has Mass    1.00783
   Atom   18 Element H  Has Mass    1.00783
   Molecular Mass:   125.060290 amu
   Principal axes and moments of inertia in amu*Bohr^2:
                             1           2           3
    Eigenvalues --      610.99345  1610.10467  1996.40726
          X               0.99367     0.10254     0.04583
          Y              -0.06516     0.85862    -0.50845
          Z              -0.09149     0.50225     0.85987
   Rotational Symmetry Number is   1
   The Molecule is an Asymmetric Top
   Translational Enthalpy:        0.889 kcal/mol
   Rotational Enthalpy:           0.889 kcal/mol
   Vibrational Enthalpy:         95.970 kcal/mol
   gas constant (RT):             0.592 kcal/mol
   Translational Entropy:        40.384  cal/mol.K
   Rotational Entropy:           29.064  cal/mol.K
   Vibrational Entropy:          23.085  cal/mol.K

   Total Enthalpy:               98.340 kcal/mol
   Total Entropy:                92.533  cal/mol.K
 Total job time:  24944.96s(wall), 193606.68s(cpu)
        *  Thank you very much for using Q-Chem.  Have a nice day.  *
