 Q-Chem 5.4, Q-Chem, Inc., Pleasanton, CA (2021)
 Q-Chem 5.4.1 for Intel X86 EM64T Linux

User input:
--------------------------------------------------------------
$molecule
0 1
C         0.6475379016    0.1269243786    0.6603589991
C         2.0469495659   -0.3177950048    1.0301203978
O         2.4405556820   -1.5406559787    0.4210979746
C        -0.2597468243   -0.7761423274    0.1102158407
C        -1.5546503456   -0.3601537692   -0.2004614000
O        -2.4797993369   -1.2171126371   -0.7492825013
C        -1.9566270864    0.9525685074    0.0396531035
C        -1.0440458625    1.8482818024    0.5909733192
C         0.2538128450    1.4466208927    0.8972099433
H         2.7593856683    0.4846048909    0.7970397510
H         2.1026252783   -0.4935924751    2.1100170594
H         2.4429985561   -1.3898586720   -0.5384507696
H         0.0383983539   -1.8040077145   -0.0824461489
H        -2.0613424512   -2.0858563764   -0.8708223305
H        -2.9686938202    1.2565474433   -0.2108230395
H        -1.3506756997    2.8743260521    0.7758372894
H         0.9628474756    2.1554378877    1.3178624118
$end

$rem
BASIS = 6-311++G(2df,2p)
GUI = 2
JOB_TYPE = Optimization
METHOD = wB97M-V
SCF_ALGORITHM = DIIS_GDM
MAX_SCF_CYCLES = 400
GEOM_OPT_MAX_CYCLES = 150
SCF_CONVERGENCE = 7
THRESH = 12
Solvent_method = SMD
$end
--------------------------------------------------------------

   15    -422.0027268752      2.28e-08  Convergence criterion met
 Total energy in the final basis set =     -421.9966702004
   12    -422.0031612453      9.46e-08  Convergence criterion met
 Total energy in the final basis set =     -421.9971426170
   12    -422.0031657542      9.03e-08  Convergence criterion met
 Total energy in the final basis set =     -421.9971527277
   12    -422.0031653083      9.17e-08  Convergence criterion met
 Total energy in the final basis set =     -421.9971547917
   12    -422.0031599526      9.04e-08  Convergence criterion met
 Total energy in the final basis set =     -421.9971576385
   12    -422.0031517271      8.88e-08  Convergence criterion met
 Total energy in the final basis set =     -421.9971611845
   12    -422.0031383531      8.16e-08  Convergence criterion met
 Total energy in the final basis set =     -421.9971697319
   12    -422.0030722158      8.73e-08  Convergence criterion met
   13    -422.0031295073      7.72e-08  Convergence criterion met
 Total energy in the final basis set =     -421.9971717109
   13    -422.0031259395      6.79e-08  Convergence criterion met
 Total energy in the final basis set =     -421.9971715385
   13    -421.9926911609      7.14e-08  Convergence criterion met
 Total energy in the final basis set =     -421.9862667330
   14    -422.0031121116      3.37e-08  Convergence criterion met
 Total energy in the final basis set =     -421.9971057405
   13    -422.0031321600      6.32e-08  Convergence criterion met
 Total energy in the final basis set =     -421.9971767102
   13    -422.0031439275      8.80e-08  Convergence criterion met
 Total energy in the final basis set =     -421.9971807834

             Standard Nuclear Orientation (Angstroms)
    I     Atom           X                Y                Z
 ----------------------------------------------------------------
    1      C       0.6448499347     0.1299031450     0.6513972189
    2      C       2.0542107084    -0.2851860879     1.0018006674
    3      O       2.4163235658    -1.5757460911     0.5316002800
    4      C      -0.2513683441    -0.7609778553     0.0794584138
    5      C      -1.5456536710    -0.3463682845    -0.2161104160
    6      O      -2.4596177493    -1.2020007106    -0.7867094022
    7      C      -1.9587128095     0.9482223024     0.0553313373
    8      C      -1.0547827897     1.8336818701     0.6280170094
    9      C       0.2398005425     1.4354880660     0.9228756027
   10      H       2.7535683177     0.4670937265     0.6305552742
   11      H       2.1615583811    -0.3194298513     2.0859919097
   12      H       2.4180310238    -1.5584259903    -0.4316751169
   13      H       0.0449178853    -1.7788926208    -0.1412396013
   14      H      -2.0455579268    -2.0607818458    -0.9327625316
   15      H      -2.9689518096     1.2514347338    -0.1836886192
   16      H      -1.3684724947     2.8472262524     0.8402903658
   17      H       0.9393871355     2.1348961412     1.3629675079
 ----------------------------------------------------------------

   13    -422.0031449602      7.09e-08  Convergence criterion met
 Total energy in the final basis set =     -421.9971809576
 Final energy is   -421.997180957569
 **  OPTIMIZATION CONVERGED  **

                    Orbital Energies (a.u.)
 --------------------------------------------------------------

 Alpha MOs
 -- Occupied --
-19.3603 -19.3383 -10.4083 -10.3872 -10.3556 -10.3459 -10.3392 -10.3367
-10.3347  -1.1872  -1.1576  -0.9850  -0.8909  -0.8637  -0.8022  -0.7340
 -0.7048  -0.6536  -0.6273  -0.5977  -0.5712  -0.5481  -0.5409  -0.5300
 -0.5245  -0.4970  -0.4699  -0.4579  -0.4465  -0.4304  -0.3940  -0.3428
 -0.3163

          Ground-State Mulliken Net Atomic Charges

     Atom                 Charge (a.u.)
  ----------------------------------------
      1 C                     0.447111
      2 C                    -0.346963
      3 O                    -0.450393
      4 C                    -0.075662
      5 C                    -0.239907
      6 O                    -0.408999
      7 C                    -0.343676
      8 C                    -0.231408
      9 C                    -0.537658
     10 H                     0.207844
     11 H                     0.206068
     12 H                     0.334282
     13 H                     0.244231
     14 H                     0.354381
     15 H                     0.278141
     16 H                     0.288316
     17 H                     0.274293
  ----------------------------------------
  Sum of atomic charges =     0.000000

                    Cartesian Multipole Moments
 -----------------------------------------------------------------
    Charge (ESU x 10^10)
                -0.0000
    Dipole Moment (Debye)
         X       1.4297      Y       0.4436      Z      -1.1088
       Tot       1.8629
    Quadrupole Moments (Debye-Ang)
        XX     -58.8340     XY       3.8560     YY     -48.3560
        XZ      -2.7174     YZ       7.1732     ZZ     -54.6161

 Total job time:  3529.39s(wall), 27131.54s(cpu)
        *  Thank you very much for using Q-Chem.  Have a nice day.  *
