 Q-Chem 5.4, Q-Chem, Inc., Pleasanton, CA (2021)
 Q-Chem 5.4.1 for Intel X86 EM64T Linux

User input:
--------------------------------------------------------------
$molecule
0 1
O    1.9057449   -1.4210530    0.6103459
C    2.3468486   -0.1675161    0.1256726
O    1.2573949    0.6084617   -0.3303092
C    3.0146520    0.6203525    1.2109664
C    4.2983794    0.9372125    1.2859760
C    5.3681511    0.5851725    0.2978813
O    6.0242591    1.7919313   -0.0344996
O    6.2775886   -0.3501095    0.8444799
H    1.3904740   -1.2715577    1.4136285
H    3.0098622   -0.4033013   -0.7025854
H    0.8965581    0.1807993   -1.1159973
H    2.3442291    0.9239906    2.0095683
H    4.6590978    1.4963010    2.1443419
H    4.9809023    0.1108593   -0.5999973
H    6.6221498    1.6131473   -0.7698434
H    6.5831783   -0.0142846    1.6971454
$end

$rem
BASIS = 6-311++G(2df,2p)
GUI = 2
JOB_TYPE = Frequency
METHOD = wB97M-V
SOLVENT_METHOD = SMD
SCF_ALGORITHM = DIIS_GDM
MAX_SCF_CYCLES = 400
SCF_CONVERGENCE = 7
THRESH = 12
$end
--------------------------------------------------------------

   13    -458.1475515767      6.19e-08  Convergence criterion met
 Total energy in the final basis set =     -458.1416599941
   11    -458.1475516618      3.55e-08  Convergence criterion met
 Total energy in the final basis set =     -458.1416595931
   11    -458.1475506524      3.45e-08  Convergence criterion met
 Total energy in the final basis set =     -458.1416595193
   11    -458.1475525312      3.69e-08  Convergence criterion met
 Total energy in the final basis set =     -458.1416592587
   11    -458.1475494833      4.23e-08  Convergence criterion met
 Total energy in the final basis set =     -458.1416592924
   11    -458.1475502937      3.61e-08  Convergence criterion met
 Total energy in the final basis set =     -458.1416592631
   11    -458.1475512458      4.06e-08  Convergence criterion met
 Total energy in the final basis set =     -458.1416590670
   11    -458.1475487772      3.58e-08  Convergence criterion met
 Total energy in the final basis set =     -458.1416593977
   11    -458.1475516709      3.63e-08  Convergence criterion met
 Total energy in the final basis set =     -458.1416594939
   11    -458.1475521689      3.93e-08  Convergence criterion met
 Total energy in the final basis set =     -458.1416598868
   11    -458.1475507102      3.53e-08  Convergence criterion met
 Total energy in the final basis set =     -458.1416598269
   11    -458.1475511688      3.72e-08  Convergence criterion met
 Total energy in the final basis set =     -458.1416598574
   11    -458.1475516542      3.46e-08  Convergence criterion met
 Total energy in the final basis set =     -458.1416597997
   11    -458.1475514470      4.09e-08  Convergence criterion met
 Total energy in the final basis set =     -458.1416592401
   11    -458.1475502538      3.74e-08  Convergence criterion met
 Total energy in the final basis set =     -458.1416592957

                    Orbital Energies (a.u.)
 --------------------------------------------------------------

 Alpha MOs
 -- Occupied --
-19.3448 -19.3448 -19.3447 -19.3447 -10.4477 -10.4476 -10.3507 -10.3498
 -1.2009  -1.1997  -1.1328  -1.1326  -0.9272  -0.8234  -0.7740  -0.7052
 -0.6799  -0.6307  -0.6221  -0.5851  -0.5798  -0.5389  -0.5375  -0.5256
 -0.5177  -0.4542  -0.4392  -0.4297  -0.4227  -0.4172  -0.3991  -0.3682

          Ground-State Mulliken Net Atomic Charges

     Atom                 Charge (a.u.)
  ----------------------------------------
      1 O                    -0.404697
      2 C                    -0.377313
      3 O                    -0.409491
      4 C                    -0.030064
      5 C                    -0.039787
      6 C                    -0.367179
      7 O                    -0.410608
      8 O                    -0.405683
      9 H                     0.339229
     10 H                     0.269264
     11 H                     0.332718
     12 H                     0.281458
     13 H                     0.283120
     14 H                     0.266336
     15 H                     0.333042
     16 H                     0.339656
  ----------------------------------------
  Sum of atomic charges =     0.000000

                    Cartesian Multipole Moments
 -----------------------------------------------------------------
    Charge (ESU x 10^10)
                 0.0000
    Dipole Moment (Debye)
         X       0.0087      Y       0.0442      Z      -0.0666
       Tot       0.0804
    Quadrupole Moments (Debye-Ang)
        XX     -44.5934     XY       4.2440     YY     -60.5098
        XZ      -0.9842     YZ       0.8380     ZZ     -35.6417

             Standard Nuclear Orientation (Angstroms)
    I     Atom           X                Y                Z
 ----------------------------------------------------------------
    1      O       1.9057449000    -1.4210530000     0.6103459000
    2      C       2.3468486000    -0.1675161000     0.1256726000
    3      O       1.2573949000     0.6084617000    -0.3303092000
    4      C       3.0146520000     0.6203525000     1.2109664000
    5      C       4.2983794000     0.9372125000     1.2859760000
    6      C       5.3681511000     0.5851725000     0.2978813000
    7      O       6.0242591000     1.7919313000    -0.0344996000
    8      O       6.2775886000    -0.3501095000     0.8444799000
    9      H       1.3904740000    -1.2715577000     1.4136285000
   10      H       3.0098622000    -0.4033013000    -0.7025854000
   11      H       0.8965581000     0.1807993000    -1.1159973000
   12      H       2.3442291000     0.9239906000     2.0095683000
   13      H       4.6590978000     1.4963010000     2.1443419000
   14      H       4.9809023000     0.1108593000    -0.5999973000
   15      H       6.6221498000     1.6131473000    -0.7698434000
   16      H       6.5831783000    -0.0142846000     1.6971454000
 ----------------------------------------------------------------

 Frequency:        34.66                  41.13                 165.10
 Force Cnst:      0.0043                 0.0055                 0.0758
 Red. Mass:       6.0709                 5.5559                 4.7215
 IR Intens:        0.227                  0.018                  0.107
 Frequency:       185.03                 308.31                 313.54
 Force Cnst:      0.1172                 0.0611                 0.0661
 Red. Mass:       5.8087                 1.0914                 1.1406
 IR Intens:        0.666                201.294                 29.485
 Frequency:       329.23                 343.94                 373.99
 Force Cnst:      0.0759                 0.0844                 0.2163
 Red. Mass:       1.1881                 1.2106                 2.6248
 IR Intens:      298.399                139.432                 18.946
 Frequency:       400.87                 426.23                 502.28
 Force Cnst:      0.2394                 0.3017                 0.9489
 Red. Mass:       2.5281                 2.8189                 6.3840
 IR Intens:      159.563                 41.063                225.907
 Frequency:       598.38                 610.88                 692.67
 Force Cnst:      1.1404                 0.7537                 1.2864
 Red. Mass:       5.4059                 3.4278                 4.5507
 IR Intens:       16.219                  0.130                 18.755
 Frequency:       812.97                 939.72                1039.06
 Force Cnst:      0.6195                 1.4352                 0.8338
 Red. Mass:       1.5909                 2.7585                 1.3108
 IR Intens:       50.052                107.975                  0.005
 Frequency:      1051.20                1168.64                1179.23
 Force Cnst:      1.2211                 2.1564                 1.4881
 Red. Mass:       1.8756                 2.6799                 1.8163
 IR Intens:        0.041                464.588                 12.023
 Frequency:      1196.03                1219.19                1240.06
 Force Cnst:      0.9851                 1.5613                 4.0142
 Red. Mass:       1.1689                 1.7827                 4.4306
 IR Intens:      218.886                 23.473                482.455
 Frequency:      1268.61                1282.70                1292.97
 Force Cnst:      1.9984                 1.5584                 1.5621
 Red. Mass:       2.1075                 1.6076                 1.5859
 IR Intens:       46.260                218.396                  8.144
 Frequency:      1314.43                1380.22                1416.95
 Force Cnst:      1.3620                 1.4697                 1.4461
 Red. Mass:       1.3380                 1.3095                 1.2225
 IR Intens:       59.175                  0.268                 80.448
 Frequency:      1420.77                1476.77                1490.21
 Force Cnst:      1.4709                 1.9093                 2.4253
 Red. Mass:       1.2368                 1.4859                 1.8536
 IR Intens:       20.516                138.197                104.286
 Frequency:      1779.15                3120.33                3141.34
 Force Cnst:     13.4461                 6.2458                 6.3197
 Red. Mass:       7.2098                 1.0888                 1.0870
 IR Intens:        1.198                 20.383                 33.064
 Frequency:      3148.85                3167.52                3792.93
 Force Cnst:      6.3340                 6.4793                 9.0376
 Red. Mass:       1.0842                 1.0961                 1.0662
 IR Intens:       16.425                 16.436                101.265
 Frequency:      3793.75                3813.80                3815.97
 Force Cnst:      9.0412                 9.1393                 9.1501
 Red. Mass:       1.0662                 1.0665                 1.0665
 IR Intens:      121.154                130.076                132.689

 STANDARD THERMODYNAMIC QUANTITIES AT   298.15 K  AND     1.00 ATM

   This Molecule has  0 Imaginary Frequencies
   Zero point vibrational energy:       81.614 kcal/mol

   Atom    1 Element O  Has Mass   15.99491
   Atom    2 Element C  Has Mass   12.00000
   Atom    3 Element O  Has Mass   15.99491
   Atom    4 Element C  Has Mass   12.00000
   Atom    5 Element C  Has Mass   12.00000
   Atom    6 Element C  Has Mass   12.00000
   Atom    7 Element O  Has Mass   15.99491
   Atom    8 Element O  Has Mass   15.99491
   Atom    9 Element H  Has Mass    1.00783
   Atom   10 Element H  Has Mass    1.00783
   Atom   11 Element H  Has Mass    1.00783
   Atom   12 Element H  Has Mass    1.00783
   Atom   13 Element H  Has Mass    1.00783
   Atom   14 Element H  Has Mass    1.00783
   Atom   15 Element H  Has Mass    1.00783
   Atom   16 Element H  Has Mass    1.00783
   Molecular Mass:   120.042280 amu
   Principal axes and moments of inertia in amu*Bohr^2:
                             1           2           3
    Eigenvalues --      469.89986  1787.72929  1981.60515
          X               0.96903    -0.20344    -0.14000
          Y               0.24060     0.90557     0.34937
          Z               0.05571    -0.37223     0.92647
   Rotational Symmetry Number is   1
   The Molecule is an Asymmetric Top
   Translational Enthalpy:        0.889 kcal/mol
   Rotational Enthalpy:           0.889 kcal/mol
   Vibrational Enthalpy:         85.641 kcal/mol
   gas constant (RT):             0.592 kcal/mol
   Translational Entropy:        40.262  cal/mol.K
   Rotational Entropy:           28.900  cal/mol.K
   Vibrational Entropy:          26.307  cal/mol.K

   Total Enthalpy:               88.011 kcal/mol
   Total Entropy:                95.469  cal/mol.K
 Total job time:  8602.18s(wall), 103607.97s(cpu)
        *  Thank you very much for using Q-Chem.  Have a nice day.  *
