 Q-Chem 5.4, Q-Chem, Inc., Pleasanton, CA (2021)
 Q-Chem 5.4.1 for Intel X86 EM64T Linux

User input:
--------------------------------------------------------------
$molecule
0 1
O         1.9107694092   -1.4275186281    0.5911695713
C         2.3324182614   -0.1642751078    0.1140215861
O         1.2318965759    0.6123197688   -0.3123866926
C         3.0105153125    0.6232289662    1.1999051186
C         4.3011620454    0.9383795741    1.2777071374
C         5.3818535625    0.5852895163    0.2944780148
O         6.0340591730    1.7960902076   -0.0292477980
O         6.2878773018   -0.3500139618    0.8470333766
H         1.3530910838   -1.2605203781    1.3714011958
H         2.9935930722   -0.3911174757   -0.7259524051
H         0.8184482383    0.1282766575   -1.0472441092
H         2.3379445176    0.9294275582    2.0019937479
H         4.6618763495    1.4978487078    2.1417181666
H         4.9968837082    0.1009163083   -0.6062941020
H         6.7007283307    1.5813293263   -0.7034892082
H         6.6263530581    0.0407449603    1.6719604800
$end

$rem
BASIS = 6-311++G(2df,2p)
GUI = 2
JOB_TYPE = Optimization
METHOD = wB97M-V
SCF_ALGORITHM = DIIS_GDM
MAX_SCF_CYCLES = 400
GEOM_OPT_MAX_CYCLES = 150
SCF_CONVERGENCE = 7
THRESH = 12
Solvent_method = SMD
$end
--------------------------------------------------------------

   13    -458.1468146840      5.73e-08  Convergence criterion met
 Total energy in the final basis set =     -458.1409240328
   12    -458.1474429520      2.77e-08  Convergence criterion met
 Total energy in the final basis set =     -458.1415416426
   11    -458.1475003812      6.75e-08  Convergence criterion met
 Total energy in the final basis set =     -458.1416073962
   11    -458.1475377644      6.34e-08  Convergence criterion met
 Total energy in the final basis set =     -458.1416489897
   11    -458.1475509652      3.35e-08  Convergence criterion met
 Total energy in the final basis set =     -458.1416591813

             Standard Nuclear Orientation (Angstroms)
    I     Atom           X                Y                Z
 ----------------------------------------------------------------
    1      O       1.9057448562    -1.4210529710     0.6103459473
    2      C       2.3468486168    -0.1675160703     0.1256726258
    3      O       1.2573949065     0.6084616789    -0.3303091988
    4      C       3.0146519503     0.6203524681     1.2109664456
    5      C       4.2983793564     0.9372125324     1.2859760310
    6      C       5.3681511125     0.5851725382     0.2978812942
    7      O       6.0242591312     1.7919312995    -0.0344996427
    8      O       6.2775885510    -0.3501094814     0.8444798665
    9      H       1.3904739898    -1.2715576692     1.4136284977
   10      H       3.0098621596    -0.4033012794    -0.7025853548
   11      H       0.8965581069     0.1807993138    -1.1159973428
   12      H       2.3442291057     0.9239905933     2.0095682960
   13      H       4.6590977746     1.4963010248     2.1443418900
   14      H       4.9809022642     0.1108593097    -0.5999972919
   15      H       6.6221498127     1.6131472827    -0.7698433713
   16      H       6.5831783056    -0.0142845701     1.6971453882
 ----------------------------------------------------------------

   11    -458.1475515770      3.39e-08  Convergence criterion met
 Total energy in the final basis set =     -458.1416599943
 Final energy is   -458.141659994285
 **  OPTIMIZATION CONVERGED  **

                    Orbital Energies (a.u.)
 --------------------------------------------------------------

 Alpha MOs
 -- Occupied --
-19.3448 -19.3448 -19.3447 -19.3447 -10.4477 -10.4476 -10.3507 -10.3498
 -1.2009  -1.1997  -1.1327  -1.1326  -0.9272  -0.8234  -0.7740  -0.7052
 -0.6799  -0.6307  -0.6220  -0.5851  -0.5798  -0.5388  -0.5375  -0.5256
 -0.5177  -0.4542  -0.4392  -0.4297  -0.4227  -0.4172  -0.3991  -0.3682

          Ground-State Mulliken Net Atomic Charges

     Atom                 Charge (a.u.)
  ----------------------------------------
      1 O                    -0.404696
      2 C                    -0.377310
      3 O                    -0.409491
      4 C                    -0.030068
      5 C                    -0.039745
      6 C                    -0.367193
      7 O                    -0.410621
      8 O                    -0.405894
      9 H                     0.339230
     10 H                     0.269262
     11 H                     0.332718
     12 H                     0.281459
     13 H                     0.283126
     14 H                     0.266344
     15 H                     0.333039
     16 H                     0.339840
  ----------------------------------------
  Sum of atomic charges =     0.000000

                    Cartesian Multipole Moments
 -----------------------------------------------------------------
    Charge (ESU x 10^10)
                 0.0000
    Dipole Moment (Debye)
         X       0.0086      Y       0.0438      Z      -0.0650
       Tot       0.0788
    Quadrupole Moments (Debye-Ang)
        XX     -44.5960     XY       4.2416     YY     -60.5112
        XZ      -0.9733     YZ       0.8379     ZZ     -35.6364

 Total job time:  443.60s(wall), 6183.71s(cpu)
        *  Thank you very much for using Q-Chem.  Have a nice day.  *
