 Q-Chem 5.4, Q-Chem, Inc., Pleasanton, CA (2021)
 Q-Chem 5.4.1 for Intel X86 EM64T Linux

User input:
--------------------------------------------------------------
$molecule
0 2
C         2.3972647610   -1.0240579267   -0.9595223924
O         1.1167199182   -0.7251601535   -0.4581781949
C         3.4079000615   -0.5131846219    0.0851089431
O         3.3232732433   -1.3665573599    1.1842192489
C         3.1874949534    0.9144226024    0.4248554521
O         5.2113717940    1.5080434126    1.3926105461
O         5.7009802897    0.7038899268    2.1518282090
H         2.5735033606   -0.5231584511   -1.9090725448
H         0.4804948899   -0.8563955287   -1.1705565924
H         2.6110297792    1.1416126511    1.3077712623
H         3.2775316300    1.6627721946   -0.3466160485
O         2.5579288192   -2.3977826025   -1.1994725731
H         2.5200178429   -2.8583505885   -0.3502684613
O         4.7432353197   -0.7549928100   -0.4268207904
O         4.9865178715    0.1085445944   -1.5330954904
H         3.7498750331   -0.9532661143    1.9450679563
H         5.4640716328    0.8446357755   -1.1214398296
$end

$rem
BASIS = 6-311++G(2df,2p)
GUI = 2
JOB_TYPE = Frequency
METHOD = wB97M-V
SOLVENT_METHOD = SMD
SCF_ALGORITHM = DIIS_GDM
MAX_SCF_CYCLES = 400
SCF_CONVERGENCE = 7
THRESH = 12
$end

--------------------------------------------------------------

   26    -644.8762672775      5.16e-08  Convergence criterion met
 Total energy in the final basis set =     -644.8716140443
   18    -644.8762632058      9.15e-08  Convergence criterion met
 Total energy in the final basis set =     -644.8716130225
   18    -644.8762696654      9.01e-08  Convergence criterion met
 Total energy in the final basis set =     -644.8716130244
   18    -644.8762611779      9.18e-08  Convergence criterion met
 Total energy in the final basis set =     -644.8716129551
   18    -644.8762716110      9.09e-08  Convergence criterion met
 Total energy in the final basis set =     -644.8716129276
   18    -644.8762658424      9.15e-08  Convergence criterion met
 Total energy in the final basis set =     -644.8716128739
   18    -644.8762664649      9.01e-08  Convergence criterion met
 Total energy in the final basis set =     -644.8716128935
   18    -644.8762704759      9.14e-08  Convergence criterion met
 Frequency:      -199.65                  52.64                  71.07
 Force Cnst:      0.2348                 0.0206                 0.0223
 Red. Mass:       9.9965                12.5901                 7.4922
 IR Intens:      106.076                  0.146                  0.556
 Frequency:        85.58                 107.76                 131.15
 Force Cnst:      0.0261                 0.0668                 0.0523
 Red. Mass:       6.0451                 9.7607                 5.1601
 IR Intens:        4.662                  0.166                 10.472
 Frequency:       207.36                 242.38                 254.03
 Force Cnst:      0.1389                 0.0793                 0.1368
 Red. Mass:       5.4823                 2.2901                 3.5974
 IR Intens:       20.882                 95.612                 32.906
 Frequency:       267.13                 284.18                 307.04
 Force Cnst:      0.0516                 0.1573                 0.0698
 Red. Mass:       1.2282                 3.3065                 1.2569
 IR Intens:      172.754                 14.217                212.488
 Frequency:       315.13                 340.75                 376.09
 Force Cnst:      0.0845                 0.1006                 0.2312
 Red. Mass:       1.4446                 1.4700                 2.7747
 IR Intens:      224.185                 70.887                 34.412
 Frequency:       388.21                 454.15                 497.30
 Force Cnst:      0.2054                 0.1910                 0.7557
 Red. Mass:       2.3136                 1.5714                 5.1864
 IR Intens:       45.382                  0.319                 24.602
 Frequency:       536.39                 574.25                 682.25
 Force Cnst:      0.7525                 0.9769                 0.9337
 Red. Mass:       4.4392                 5.0280                 3.4047
 IR Intens:       36.166                 79.295                 35.024
 Frequency:       734.00                 808.85                 931.50
 Force Cnst:      0.4568                 1.3682                 1.0417
 Red. Mass:       1.4391                 3.5494                 2.0376
 IR Intens:      166.708                 86.619                 58.398
 Frequency:      1004.32                1046.50                1105.62
 Force Cnst:      2.8175                 4.4661                 1.5991
 Red. Mass:       4.7410                 6.9215                 2.2204
 IR Intens:       53.909                 38.208                263.053
 Frequency:      1176.27                1223.63                1272.72
 Force Cnst:      1.5952                 1.2084                 2.4298
 Red. Mass:       1.9569                 1.3698                 2.5459
 IR Intens:      167.428                 57.987                203.019
 Frequency:      1288.34                1331.41                1373.12
 Force Cnst:      2.5826                 2.8754                 1.7277
 Red. Mass:       2.6409                 2.7531                 1.5552
 IR Intens:      338.494                 71.789                 21.667
 Frequency:      1411.96                1431.68                1452.73
 Force Cnst:      1.3111                 1.5466                 1.6831
 Red. Mass:       1.1162                 1.2807                 1.3536
 IR Intens:       92.363                 53.669                104.170
 Frequency:      1472.81                1542.41                3128.12
 Force Cnst:      2.1040                21.1453                 6.2759
 Red. Mass:       1.6463                15.0856                 1.0886
 IR Intens:       47.604                626.560                 24.881
 Frequency:      3182.87                3296.24                3753.23
 Force Cnst:      6.2788                 7.1759                 8.8665
 Red. Mass:       1.0519                 1.1210                 1.0683
 IR Intens:        0.867                  0.107                115.435
 Frequency:      3781.01                3807.45                3823.82
 Force Cnst:      8.9760                 9.1125                 9.1889
 Red. Mass:       1.0657                 1.0669                 1.0666
 IR Intens:      129.154                154.031                156.411

 STANDARD THERMODYNAMIC QUANTITIES AT   298.15 K  AND     1.00 ATM

   This Molecule has  1 Imaginary Frequencies
   Zero point vibrational energy:       73.702 kcal/mol

   Atom    1 Element C  Has Mass   12.00000
   Atom    2 Element O  Has Mass   15.99491
   Atom    3 Element C  Has Mass   12.00000
   Atom    4 Element O  Has Mass   15.99491
   Atom    5 Element C  Has Mass   12.00000
   Atom    6 Element O  Has Mass   15.99491
   Atom    7 Element O  Has Mass   15.99491
   Atom    8 Element H  Has Mass    1.00783
   Atom    9 Element H  Has Mass    1.00783
   Atom   10 Element H  Has Mass    1.00783
   Atom   11 Element H  Has Mass    1.00783
   Atom   12 Element O  Has Mass   15.99491
   Atom   13 Element H  Has Mass    1.00783
   Atom   14 Element O  Has Mass   15.99491
   Atom   15 Element O  Has Mass   15.99491
   Atom   16 Element H  Has Mass    1.00783
   Atom   17 Element H  Has Mass    1.00783
   Molecular Mass:   155.019180 amu
   Principal axes and moments of inertia in amu*Bohr^2:
                             1           2           3
    Eigenvalues --      848.32179  2123.38065  2313.82335
          X               0.70622    -0.60745    -0.36367
          Y               0.52214     0.09996     0.84698
          Z               0.47815     0.78804    -0.38777
   Rotational Symmetry Number is   1
   The Molecule is an Asymmetric Top
   Translational Enthalpy:        0.889 kcal/mol
   Rotational Enthalpy:           0.889 kcal/mol
   Vibrational Enthalpy:         79.632 kcal/mol
   gas constant (RT):             0.592 kcal/mol
   Translational Entropy:        41.025  cal/mol.K
   Rotational Entropy:           29.812  cal/mol.K
   Vibrational Entropy:          37.421  cal/mol.K

   Total Enthalpy:               82.002 kcal/mol
   Total Entropy:               108.257  cal/mol.K
 Total job time:  16310.56s(wall), 231527.34s(cpu)
        *  Thank you very much for using Q-Chem.  Have a nice day.  *
 Q-Chem 5.4, Q-Chem, Inc., Pleasanton, CA (2021)
 Q-Chem 5.4.1 for Intel X86 EM64T Linux

User input:
--------------------------------------------------------------

$molecule
read
$end

$rem
JOBTYPE            rpath
SCF_GUESS          read
RPATH_MAX_CYCLES   30
BASIS = 6-311++G(2df,2p)
METHOD = wB97M-V
SOLVENT_METHOD = SMD
SCF_ALGORITHM = DIIS_GDM
SCF_CONVERGENCE = 7
THRESH = 12
$end
--------------------------------------------------------------

 Total energy in the final basis set =     -644.9338814406
   20    -644.9386034761      4.31e-08  Convergence criterion met
 Total energy in the final basis set =     -644.9342083876
   20    -644.9383537918      4.71e-08  Convergence criterion met
 Total energy in the final basis set =     -644.9340592022
   19    -644.9386313916      6.78e-08  Convergence criterion met
 Total energy in the final basis set =     -644.9342768507
   20    -644.9372346568      5.23e-08  Convergence criterion met
 Total energy in the final basis set =     -644.9328320309
   19    -644.9387069069      7.90e-08  Convergence criterion met
 Total energy in the final basis set =     -644.9343440835
   19    -644.9386715204      7.44e-08  Convergence criterion met
 Total energy in the final basis set =     -644.9343299645
   19    -644.9387227171      8.20e-08  Convergence criterion met
 Total energy in the final basis set =     -644.9343695654

                    Orbital Energies (a.u.)
 --------------------------------------------------------------

 Alpha MOs
 -- Occupied --
-19.4743 -19.4266 -19.4110 -19.4028 -19.3634 -19.3517 -19.3495 -10.4759
-10.4535 -10.4120  -1.3542  -1.2857  -1.2167  -1.1878  -1.1403  -1.0473
 -1.0280  -0.8821  -0.8132  -0.7461  -0.7011  -0.6717  -0.6612  -0.6525
 -0.6324  -0.6266  -0.5860  -0.5805  -0.5733  -0.5599  -0.5360  -0.5136
 -0.4901  -0.4660  -0.4547  -0.4362  -0.4228  -0.4182  -0.4155  -0.4042
 -0.3868

 Beta MOs
 -- Occupied --
-19.4639 -19.4110 -19.4079 -19.4027 -19.3634 -19.3517 -19.3495 -10.4756
-10.4535 -10.4124  -1.3288  -1.2848  -1.2166  -1.1876  -1.1402  -1.0461
 -0.9981  -0.8766  -0.8059  -0.7446  -0.6981  -0.6609  -0.6574  -0.6442
 -0.6214  -0.6084  -0.5799  -0.5744  -0.5585  -0.5484  -0.5353  -0.4909
 -0.4874  -0.4616  -0.4540  -0.4343  -0.4184  -0.4100  -0.4066  -0.3876

          Ground-State Mulliken Net Atomic Charges

     Atom                 Charge (a.u.)    Spin (a.u.)
  --------------------------------------------------------
      1 C                    -0.123271       0.004075
      2 O                    -0.415921       0.000218
      3 C                     0.189011      -0.006615
      4 O                    -0.398334       0.002986
      5 C                    -0.482824       0.008035
      6 O                     0.087204       0.308200
      7 O                    -0.217001       0.671816
      8 H                     0.296952       0.000269
      9 H                     0.340414       0.000025
     10 H                     0.276940       0.010133
     11 H                     0.311658       0.000291
     12 O                    -0.450469       0.000520
     13 H                     0.352173       0.000119
     14 O                    -0.159489      -0.002487
     15 O                    -0.275273       0.004215
     16 H                     0.335524      -0.002253
     17 H                     0.332705       0.000454
  --------------------------------------------------------
  Sum of atomic charges =     0.000000

                    Cartesian Multipole Moments
 -----------------------------------------------------------------
    Charge (ESU x 10^10)
                 0.0000
    Dipole Moment (Debye)
         X      -2.7149      Y       4.0147      Z      -0.0912
       Tot       4.8474
    Quadrupole Moments (Debye-Ang)
        XX     -76.8738     XY      16.5748     YY     -60.1919
        XZ       1.5322     YZ      -6.4581     ZZ     -59.8293

             Standard Nuclear Orientation (Angstroms)
    I     Atom           X                Y                Z
 ----------------------------------------------------------------
    1      C       2.3972647610    -1.0240579267    -0.9595223924
    2      O       1.1167199182    -0.7251601535    -0.4581781949
    3      C       3.4079000615    -0.5131846219     0.0851089431
    4      O       3.3232732433    -1.3665573599     1.1842192489
    5      C       3.1874949534     0.9144226024     0.4248554521
    6      O       5.2113717940     1.5080434126     1.3926105461
    7      O       5.7009802897     0.7038899268     2.1518282090
    8      H       2.5735033606    -0.5231584511    -1.9090725448
    9      H       0.4804948899    -0.8563955287    -1.1705565924
   10      H       2.6110297792     1.1416126511     1.3077712623
   11      H       3.2775316300     1.6627721946    -0.3466160485
   12      O       2.5579288192    -2.3977826025    -1.1994725731
   13      H       2.5200178429    -2.8583505885    -0.3502684613
   14      O       4.7432353197    -0.7549928100    -0.4268207904
   15      O       4.9865178715     0.1085445944    -1.5330954904
   16      H       3.7498750331    -0.9532661143     1.9450679563
   17      H       5.4640716328     0.8446357755    -1.1214398296
 ----------------------------------------------------------------

 Total job time:  17531.31s(wall), 248158.11s(cpu)
        *  Thank you very much for using Q-Chem.  Have a nice day.  *
