 Q-Chem 5.4, Q-Chem, Inc., Pleasanton, CA (2021)
 Q-Chem 5.4.1 for Intel X86 EM64T Linux

User input:
--------------------------------------------------------------
$molecule
0 2
C         2.3825137151   -1.0251152011   -0.9687068454
O         1.0980715746   -0.7272897893   -0.4725354701
C         3.3800881547   -0.4838528504    0.0740321542
O         3.2685245952   -1.3234840588    1.1874058471
C         3.1568714463    0.9521352604    0.3917290330
O         5.2690833387    1.4665558202    1.4567325913
O         5.7505942304    0.5581370234    2.1040776006
H         2.5619758789   -0.5446842788   -1.9344432296
H         0.4655854211   -0.9661241561   -1.1704792301
H         2.5574282084    1.1970461270    1.2603068362
H         3.2929122775    1.7016516577   -0.3782104827
O         2.5682200392   -2.4026981681   -1.1724703857
H         2.5651391503   -2.8122186180   -0.2879644384
O         4.7225839377   -0.7387201778   -0.4109620903
O         4.9891134880    0.1459140162   -1.5066886937
H         3.8227037455   -0.9602606423    1.9000513461
H         5.4578019985    0.8740230359   -1.0554558425
$end

$rem
BASIS = 6-311++G(2df,2p)
GUI = 2
JOB_TYPE = Frequency
METHOD = wB97M-V
SCF_ALGORITHM = DIIS_GDM
MAX_SCF_CYCLES = 400
SCF_CONVERGENCE = 6
THRESH = 11
solvent_method = SMD
$end

--------------------------------------------------------------

   25    -644.8754442697      6.91e-07  Convergence criterion met
 Total energy in the final basis set =     -644.8708384928
   14    -644.8754461947      9.95e-07  Convergence criterion met
 Total energy in the final basis set =     -644.8708429356
   14    -644.8754406669      9.93e-07  Convergence criterion met
 Total energy in the final basis set =     -644.8708320116
   14    -644.8754439692      9.94e-07  Convergence criterion met
 Total energy in the final basis set =     -644.8708428284
   14    -644.8754428272      9.98e-07  Convergence criterion met
 Total energy in the final basis set =     -644.8708319598
   14    -644.8754376870      9.94e-07  Convergence criterion met
 Total energy in the final basis set =     -644.8708322425
   14    -644.8754486253      9.90e-07  Convergence criterion met
 Total energy in the final basis set =     -644.8708424523
   14    -644.8754401944      9.97e-07  Convergence criterion met
 Frequency:      -111.05                  89.21                 102.23
 Force Cnst:      0.0750                 0.0398                 0.0379
 Red. Mass:      10.3200                 8.4856                 6.1564
 IR Intens:       35.677                  0.241                  2.927
 Frequency:       109.11                 151.06                 167.15
 Force Cnst:      0.0696                 0.0944                 0.1586
 Red. Mass:       9.9265                 7.0190                 9.6360
 IR Intens:        0.450                  1.436                  3.662
 Frequency:       239.68                 266.88                 283.36
 Force Cnst:      0.2355                 0.2708                 0.2276
 Red. Mass:       6.9591                 6.4541                 4.8103
 IR Intens:        0.346                 16.035                  5.543
 Frequency:       301.49                 348.79                 381.35
 Force Cnst:      0.3055                 0.1893                 0.1501
 Red. Mass:       5.7048                 2.6410                 1.7515
 IR Intens:        2.626                 50.863                 73.338
 Frequency:       410.95                 433.23                 443.43
 Force Cnst:      0.1193                 0.1469                 0.1891
 Red. Mass:       1.1988                 1.3282                 1.6319
 IR Intens:       26.635                214.436                134.615
 Frequency:       471.44                 488.67                 505.43
 Force Cnst:      0.1581                 0.1610                 0.6836
 Red. Mass:       1.2076                 1.1446                 4.5416
 IR Intens:       63.183                185.754                 79.961
 Frequency:       545.16                 586.92                 685.84
 Force Cnst:      0.6987                 0.7695                 0.9251
 Red. Mass:       3.9903                 3.7917                 3.3381
 IR Intens:       69.870                119.338                 43.000
 Frequency:       729.01                 815.59                 942.90
 Force Cnst:      0.4856                 1.4443                 1.0424
 Red. Mass:       1.5507                 3.6853                 1.9901
 IR Intens:      146.333                 92.072                 49.477
 Frequency:       995.53                1041.53                1126.14
 Force Cnst:      4.0098                 3.0907                 1.9075
 Red. Mass:       6.8669                 4.8358                 2.5528
 IR Intens:       26.874                 58.309                225.304
 Frequency:      1191.89                1237.95                1276.86
 Force Cnst:      1.8283                 1.3601                 2.4039
 Red. Mass:       2.1844                 1.5064                 2.5026
 IR Intens:      138.316                124.930                244.597
 Frequency:      1313.29                1348.83                1396.37
 Force Cnst:      2.1577                 2.5918                 1.6296
 Red. Mass:       2.1233                 2.4179                 1.4185
 IR Intens:      280.954                 41.715                 28.839
 Frequency:      1435.63                1439.36                1445.51
 Force Cnst:      1.5990                 1.5592                 1.3676
 Red. Mass:       1.3168                 1.2774                 1.1109
 IR Intens:       13.459                113.773                 87.061
 Frequency:      1481.93                1541.06                3076.79
 Force Cnst:      2.1476                21.2695                 6.0686
 Red. Mass:       1.6598                15.2009                 1.0880
 IR Intens:      114.259                326.815                 29.273
 Frequency:      3142.22                3252.53                3661.00
 Force Cnst:      6.1201                 6.9855                 8.4355
 Red. Mass:       1.0520                 1.1207                 1.0682
 IR Intens:        0.671                  0.088                114.982
 Frequency:      3674.07                3700.85                3722.40
 Force Cnst:      8.4714                 8.6086                 8.7061
 Red. Mass:       1.0651                 1.0668                 1.0664
 IR Intens:      131.582                146.095                145.829

 STANDARD THERMODYNAMIC QUANTITIES AT   298.15 K  AND     1.00 ATM

   This Molecule has  1 Imaginary Frequencies
   Zero point vibrational energy:       74.339 kcal/mol

   Atom    1 Element C  Has Mass   12.00000
   Atom    2 Element O  Has Mass   15.99491
   Atom    3 Element C  Has Mass   12.00000
   Atom    4 Element O  Has Mass   15.99491
   Atom    5 Element C  Has Mass   12.00000
   Atom    6 Element O  Has Mass   15.99491
   Atom    7 Element O  Has Mass   15.99491
   Atom    8 Element H  Has Mass    1.00783
   Atom    9 Element H  Has Mass    1.00783
   Atom   10 Element H  Has Mass    1.00783
   Atom   11 Element H  Has Mass    1.00783
   Atom   12 Element O  Has Mass   15.99491
   Atom   13 Element H  Has Mass    1.00783
   Atom   14 Element O  Has Mass   15.99491
   Atom   15 Element O  Has Mass   15.99491
   Atom   16 Element H  Has Mass    1.00783
   Atom   17 Element H  Has Mass    1.00783
   Molecular Mass:   155.019180 amu
   Principal axes and moments of inertia in amu*Bohr^2:
                             1           2           3
    Eigenvalues --      844.90724  2131.02484  2303.38610
          X               0.72377    -0.59132    -0.35567
          Y               0.50358     0.10024     0.85812
          Z               0.47177     0.80018    -0.37032
   Rotational Symmetry Number is   1
   The Molecule is an Asymmetric Top
   Translational Enthalpy:        0.889 kcal/mol
   Rotational Enthalpy:           0.889 kcal/mol
   Vibrational Enthalpy:         79.616 kcal/mol
   gas constant (RT):             0.592 kcal/mol
   Translational Entropy:        41.025  cal/mol.K
   Rotational Entropy:           29.807  cal/mol.K
   Vibrational Entropy:          31.110  cal/mol.K

   Total Enthalpy:               81.986 kcal/mol
   Total Entropy:               101.941  cal/mol.K
 Total job time:  14420.46s(wall), 201517.72s(cpu)
        *  Thank you very much for using Q-Chem.  Have a nice day.  *
 Q-Chem 5.4, Q-Chem, Inc., Pleasanton, CA (2021)
 Q-Chem 5.4.1 for Intel X86 EM64T Linux

User input:
--------------------------------------------------------------

$rem
JOBTYPE = ts
SCF_GUESS = read
GEOM_OPT_HESSIAN = read
MAX_SCF_CYCLES = 350
GEOM_OPT_DMAX = 60
GEOM_OPT_MAX_CYCLES = 250
METHOD = wB97M-v
BASIS = 6-311++G(2df,2p)
SCF_CONVERGENCE = 7
THRESH = 12
SCF_ALGORITHM = DIIS_GDM
solvent_method = SMD
$end

$molecule
read
$end
--------------------------------------------------------------

   18    -644.8761643533      5.02e-08  Convergence criterion met
 Total energy in the final basis set =     -644.8715305890
   18    -644.8762003715      4.96e-08  Convergence criterion met
 Total energy in the final basis set =     -644.8715621231
   18    -644.8762295587      4.86e-08  Convergence criterion met
 Total energy in the final basis set =     -644.8715868464
   18    -644.8762512216      4.67e-08  Convergence criterion met
 Total energy in the final basis set =     -644.8716040102
   18    -644.8762643731      5.03e-08  Convergence criterion met
 Total energy in the final basis set =     -644.8716126483
   18    -644.8762672267      4.93e-08  Convergence criterion met
 Total energy in the final basis set =     -644.8716138264

             Standard Nuclear Orientation (Angstroms)
    I     Atom           X                Y                Z
 ----------------------------------------------------------------
    1      C       2.3972647610    -1.0240579267    -0.9595223924
    2      O       1.1167199182    -0.7251601535    -0.4581781949
    3      C       3.4079000615    -0.5131846219     0.0851089431
    4      O       3.3232732433    -1.3665573599     1.1842192489
    5      C       3.1874949534     0.9144226024     0.4248554521
    6      O       5.2113717940     1.5080434126     1.3926105461
    7      O       5.7009802897     0.7038899268     2.1518282090
    8      H       2.5735033606    -0.5231584511    -1.9090725448
    9      H       0.4804948899    -0.8563955287    -1.1705565924
   10      H       2.6110297792     1.1416126511     1.3077712623
   11      H       3.2775316300     1.6627721946    -0.3466160485
   12      O       2.5579288192    -2.3977826025    -1.1994725731
   13      H       2.5200178429    -2.8583505885    -0.3502684613
   14      O       4.7432353197    -0.7549928100    -0.4268207904
   15      O       4.9865178715     0.1085445944    -1.5330954904
   16      H       3.7498750331    -0.9532661143     1.9450679563
   17      H       5.4640716328     0.8446357755    -1.1214398296
 ----------------------------------------------------------------

   18    -644.8762672772      5.47e-08  Convergence criterion met
 Total energy in the final basis set =     -644.8716140440
 Final energy is   -644.871614044043
 **  OPTIMIZATION CONVERGED  **

                    Orbital Energies (a.u.)
 --------------------------------------------------------------

 Alpha MOs
 -- Occupied --
-19.4874 -19.4671 -19.4032 -19.3982 -19.3623 -19.3490 -19.3480 -10.4693
-10.4494 -10.3555  -1.4200  -1.2782  -1.2129  -1.1842  -1.1382  -1.0373
 -0.9532  -0.8798  -0.7959  -0.7352  -0.6902  -0.6668  -0.6612  -0.6539
 -0.6445  -0.6388  -0.6053  -0.5803  -0.5747  -0.5599  -0.5337  -0.5097
 -0.4856  -0.4605  -0.4507  -0.4336  -0.4135  -0.4095  -0.4028  -0.3973
 -0.3914

 Beta MOs
 -- Occupied --
-19.4591 -19.4399 -19.4040 -19.3982 -19.3624 -19.3494 -19.3483 -10.4685
-10.4502 -10.3675  -1.3681  -1.2791  -1.2136  -1.1846  -1.1389  -1.0382
 -0.8964  -0.8716  -0.8085  -0.7380  -0.6916  -0.6522  -0.6459  -0.6190
 -0.6061  -0.5841  -0.5791  -0.5699  -0.5637  -0.5570  -0.5350  -0.5170
 -0.4879  -0.4622  -0.4515  -0.4349  -0.4159  -0.4111  -0.3981  -0.3118

          Ground-State Mulliken Net Atomic Charges

     Atom                 Charge (a.u.)    Spin (a.u.)
  --------------------------------------------------------
      1 C                    -0.130778      -0.025587
      2 O                    -0.418284      -0.002049
      3 C                     0.379862       0.016855
      4 O                    -0.415878      -0.002231
      5 C                    -0.788225      -0.848431
      6 O                     0.038420       0.948964
      7 O                    -0.014112       0.908981
      8 H                     0.282665       0.000021
      9 H                     0.339270       0.000664
     10 H                     0.287530       0.014978
     11 H                     0.322043       0.013257
     12 O                    -0.449494      -0.006947
     13 H                     0.350061       0.000383
     14 O                    -0.172252      -0.021544
     15 O                    -0.294185       0.001786
     16 H                     0.352455       0.000099
     17 H                     0.330903       0.000801
  --------------------------------------------------------
  Sum of atomic charges =     0.000000

                    Cartesian Multipole Moments
 -----------------------------------------------------------------
    Charge (ESU x 10^10)
                 0.0000
    Dipole Moment (Debye)
         X      -1.2850      Y       4.3346      Z       1.2099
       Tot       4.6802
    Quadrupole Moments (Debye-Ang)
        XX     -66.1166     XY      19.2127     YY     -60.5119
        XZ       8.8938     YZ      -5.4252     ZZ     -57.0470

 Total job time:  1999.03s(wall), 28401.84s(cpu)
        *  Thank you very much for using Q-Chem.  Have a nice day.  *
