 Q-Chem 5.4, Q-Chem, Inc., Pleasanton, CA (2021)
 Q-Chem 5.4.1 for Intel X86 EM64T Linux

User input:
--------------------------------------------------------------
$molecule
0 2
H         3.3414122728   -1.2705085981   -0.0927755438
C         2.4051711421   -0.7516131488    0.0590718811
C         1.2527706449   -1.4131669833    0.0710961635
H         1.1913694699   -2.4841656140   -0.0681725105
C        -0.0202945272   -0.6817041358    0.3690525252
H        -0.2231004103   -0.7038777696    1.4425828314
C        -0.0377296027    0.7759164619   -0.1142958616
C        -1.1334048302    1.5896649009    0.5610980382
C         1.2987996993    1.4159226462    0.1875394956
H         1.3108222204    2.4960925363    0.2679257566
C         2.4215243295    0.7033273458    0.2470461804
H         3.3732964289    1.1950003705    0.3970136597
O        -2.4364437680    1.0627695830    0.3706292225
H        -1.0701730044    2.6126877661    0.1809928613
O        -0.3063462792    0.8520772795   -1.5190637570
H         0.4064937043    0.4117204427   -1.9984312936
H        -0.9517438991    1.6083808413    1.6340742096
H        -2.6120084025    1.0323228935   -0.5765821368
O        -1.1319810399   -1.3803071812   -0.2711801035
O        -1.3994140203   -2.5002269589    0.3356399366
$end

$rem
BASIS = 6-311++G(2df,2p)
GUI = 2
JOB_TYPE = Frequency
METHOD = wB97M-V
SOLVENT_METHOD = SMD
SCF_ALGORITHM = DIIS_GDM
MAX_SCF_CYCLES = 400
SCF_CONVERGENCE = 7
THRESH = 12
UNRESTRICTED = 1
SYMMETRY_IGNORE = 1
$end
--------------------------------------------------------------

   23    -572.8970027187      9.75e-08  Convergence criterion met
 Total energy in the final basis set =     -572.8918908603
   19    -572.8970025341      9.40e-08  Convergence criterion met
 Total energy in the final basis set =     -572.8918903403
   20    -572.8970018863      6.49e-08  Convergence criterion met
 Total energy in the final basis set =     -572.8918903613
   19    -572.8970022977      8.70e-08  Convergence criterion met
 Total energy in the final basis set =     -572.8918906241
   20    -572.8970026914      6.54e-08  Convergence criterion met
 Total energy in the final basis set =     -572.8918906472
   20    -572.8970025802      6.37e-08  Convergence criterion met
 Total energy in the final basis set =     -572.8918907759
   19    -572.8970027414      9.64e-08  Convergence criterion met
 Total energy in the final basis set =     -572.8918908286
   19    -572.8970019039      9.24e-08  Convergence criterion met
 Total energy in the final basis set =     -572.8918904175
   19    -572.8970021343      9.56e-08  Convergence criterion met
 Total energy in the final basis set =     -572.8918903977
   20    -572.8970025706      9.72e-08  Convergence criterion met
 Total energy in the final basis set =     -572.8918907902
   20    -572.8970026548      7.92e-08  Convergence criterion met
 Total energy in the final basis set =     -572.8918907184
   19    -572.8970020783      7.21e-08  Convergence criterion met
 Total energy in the final basis set =     -572.8918902144
   20    -572.8970019752      7.83e-08  Convergence criterion met
 Total energy in the final basis set =     -572.8918901223
   20    -572.8970024471      7.05e-08  Convergence criterion met
 Total energy in the final basis set =     -572.8918906433
   20    -572.8970025664      8.16e-08  Convergence criterion met
 Total energy in the final basis set =     -572.8918906534

                    Orbital Energies (a.u.)
 --------------------------------------------------------------

 Alpha MOs
 -- Occupied --
-19.4658 -19.4159 -19.3471 -19.3396 -10.4190 -10.4152 -10.3876 -10.3529
-10.3528 -10.3510 -10.3489  -1.3466  -1.1775  -1.1524  -1.0265  -0.9668
 -0.8953  -0.8668  -0.8007  -0.7345  -0.7272  -0.6731  -0.6542  -0.6398
 -0.6246  -0.6074  -0.5984  -0.5647  -0.5579  -0.5419  -0.5275  -0.5223
 -0.4949  -0.4750  -0.4582  -0.4438  -0.4389  -0.4114  -0.4048  -0.3889
 -0.3765  -0.3296

 Beta MOs
 -- Occupied --
-19.4549 -19.3976 -19.3471 -19.3395 -10.4189 -10.4156 -10.3876 -10.3528
-10.3526 -10.3510 -10.3489  -1.3203  -1.1772  -1.1522  -1.0054  -0.9562
 -0.8950  -0.8605  -0.7970  -0.7317  -0.7246  -0.6690  -0.6429  -0.6277
 -0.6089  -0.6029  -0.5861  -0.5539  -0.5408  -0.5367  -0.5255  -0.5173
 -0.4786  -0.4744  -0.4551  -0.4423  -0.4348  -0.4025  -0.3866  -0.3786
 -0.3295

          Ground-State Mulliken Net Atomic Charges

     Atom                 Charge (a.u.)    Spin (a.u.)
  --------------------------------------------------------
      1 H                     0.289690       0.001024
      2 C                    -0.685929      -0.001864
      3 C                     0.105201       0.017478
      4 H                     0.308651      -0.002075
      5 C                    -0.585616       0.000632
      6 H                     0.278098       0.006181
      7 C                     0.742955      -0.002198
      8 C                    -0.520989      -0.001117
      9 C                    -0.618320      -0.001287
     10 H                     0.283618       0.000160
     11 C                    -0.079487       0.001624
     12 H                     0.303894       0.000015
     13 O                    -0.405848       0.005730
     14 H                     0.236526      -0.000179
     15 O                    -0.416909       0.000932
     16 H                     0.334245      -0.000186
     17 H                     0.244280       0.000300
     18 H                     0.340023      -0.001089
     19 O                     0.053667       0.324890
     20 O                    -0.207751       0.651029
  --------------------------------------------------------
  Sum of atomic charges =     0.000000

                    Cartesian Multipole Moments
 -----------------------------------------------------------------
    Charge (ESU x 10^10)
                 0.0000
    Dipole Moment (Debye)
         X       5.9892      Y       2.5037      Z      -0.2570
       Tot       6.4965
    Quadrupole Moments (Debye-Ang)
        XX     -66.2215     XY      -4.1746     YY     -67.5068
        XZ       1.5612     YZ       2.3797     ZZ     -64.7299

             Standard Nuclear Orientation (Angstroms)
    I     Atom           X                Y                Z
 ----------------------------------------------------------------
    1      H       3.3414122728    -1.2705085981    -0.0927755438
    2      C       2.4051711421    -0.7516131488     0.0590718811
    3      C       1.2527706449    -1.4131669833     0.0710961635
    4      H       1.1913694699    -2.4841656140    -0.0681725105
    5      C      -0.0202945272    -0.6817041358     0.3690525252
    6      H      -0.2231004103    -0.7038777696     1.4425828314
    7      C      -0.0377296027     0.7759164619    -0.1142958616
    8      C      -1.1334048302     1.5896649009     0.5610980382
    9      C       1.2987996993     1.4159226462     0.1875394956
   10      H       1.3108222204     2.4960925363     0.2679257566
   11      C       2.4215243295     0.7033273458     0.2470461804
   12      H       3.3732964289     1.1950003705     0.3970136597
   13      O      -2.4364437680     1.0627695830     0.3706292225
   14      H      -1.0701730044     2.6126877661     0.1809928613
   15      O      -0.3063462792     0.8520772795    -1.5190637570
   16      H       0.4064937043     0.4117204427    -1.9984312936
   17      H      -0.9517438991     1.6083808413     1.6340742096
   18      H      -2.6120084025     1.0323228935    -0.5765821368
   19      O      -1.1319810399    -1.3803071812    -0.2711801035
   20      O      -1.3994140203    -2.5002269589     0.3356399366
 ----------------------------------------------------------------

 Frequency:        58.83                  73.94                 128.80
 Force Cnst:      0.0095                 0.0338                 0.0351
 Red. Mass:       4.6725                10.4991                 3.5919
 IR Intens:        2.386                  2.199                  8.010
 Frequency:       173.27                 196.11                 241.35
 Force Cnst:      0.0843                 0.1081                 0.1045
 Red. Mass:       4.7679                 4.7726                 3.0454
 IR Intens:        4.277                  5.890                 37.988
 Frequency:       271.12                 324.02                 334.58
 Force Cnst:      0.0803                 0.1298                 0.1382
 Red. Mass:       1.8536                 2.0977                 2.0955
 IR Intens:      110.494                 39.889                120.029
 Frequency:       342.71                 376.68                 407.07
 Force Cnst:      0.1654                 0.2123                 0.2864
 Red. Mass:       2.3903                 2.5391                 2.9337
 IR Intens:       91.051                 70.806                 12.948
 Frequency:       472.79                 496.70                 580.01
 Force Cnst:      0.4075                 0.6681                 0.7891
 Red. Mass:       3.0938                 4.5966                 3.9810
 IR Intens:        1.880                 10.250                 35.993
 Frequency:       602.08                 634.43                 734.59
 Force Cnst:      0.8293                 0.9792                 0.5304
 Red. Mass:       3.8828                 4.1291                 1.6684
 IR Intens:       18.044                  9.780                 98.771
 Frequency:       792.53                 804.54                 890.25
 Force Cnst:      0.7801                 0.9763                 1.6476
 Red. Mass:       2.1080                 2.5599                 3.5283
 IR Intens:       53.502                 11.492                 41.694
 Frequency:       926.70                 978.14                1003.02
 Force Cnst:      1.0144                 1.5185                 1.5400
 Red. Mass:       2.0048                 2.6938                 2.5981
 IR Intens:       62.963                  7.497                 40.147
 Frequency:      1011.89                1024.06                1058.37
 Force Cnst:      1.0628                 0.8382                 1.3555
 Red. Mass:       1.7618                 1.3565                 2.0539
 IR Intens:       36.009                  1.631                 44.274
 Frequency:      1072.66                1124.01                1139.73
 Force Cnst:      1.9748                 1.7873                 1.2678
 Red. Mass:       2.9131                 2.4012                 1.6566
 IR Intens:       85.852                 56.248                 53.336
 Frequency:      1158.96                1184.07                1217.91
 Force Cnst:      1.6773                 1.0645                 1.1568
 Red. Mass:       2.1195                 1.2887                 1.3236
 IR Intens:      137.204                 42.562                 13.149
 Frequency:      1259.90                1284.70                1297.39
 Force Cnst:      1.5060                12.6825                 1.2286
 Red. Mass:       1.6102                13.0422                 1.2389
 IR Intens:       24.703                 16.693                 34.787
 Frequency:      1306.55                1377.40                1391.29
 Force Cnst:      1.4076                 1.6574                 1.5928
 Red. Mass:       1.3995                 1.4827                 1.3966
 IR Intens:       79.818                 11.824                 27.852
 Frequency:      1397.44                1435.04                1438.09
 Force Cnst:      1.7451                 2.0046                 1.9505
 Red. Mass:       1.5167                 1.6521                 1.6008
 IR Intens:       13.802                 37.826                 21.163
 Frequency:      1479.48                1687.91                1737.78
 Force Cnst:      1.4319                14.8244                11.0717
 Red. Mass:       1.1103                 8.8314                 6.2226
 IR Intens:        9.384                  1.265                  2.877
 Frequency:      3050.15                3071.33                3130.56
 Force Cnst:      5.8457                 6.0224                 6.3503
 Red. Mass:       1.0665                 1.0836                 1.0998
 IR Intens:       62.535                  4.604                 27.036
 Frequency:      3183.34                3197.46                3205.74
 Force Cnst:      6.4908                 6.5529                 6.6384
 Red. Mass:       1.0871                 1.0879                 1.0964
 IR Intens:        1.417                  8.382                 14.380
 Frequency:      3217.50                3802.75                3821.55
 Force Cnst:      6.7114                 9.0883                 9.1743
 Red. Mass:       1.1003                 1.0667                 1.0662
 IR Intens:       10.494                104.215                120.605

 STANDARD THERMODYNAMIC QUANTITIES AT   298.15 K  AND     1.00 ATM

   This Molecule has  0 Imaginary Frequencies
   Zero point vibrational energy:       98.082 kcal/mol

   Atom    1 Element H  Has Mass    1.00783
   Atom    2 Element C  Has Mass   12.00000
   Atom    3 Element C  Has Mass   12.00000
   Atom    4 Element H  Has Mass    1.00783
   Atom    5 Element C  Has Mass   12.00000
   Atom    6 Element H  Has Mass    1.00783
   Atom    7 Element C  Has Mass   12.00000
   Atom    8 Element C  Has Mass   12.00000
   Atom    9 Element C  Has Mass   12.00000
   Atom   10 Element H  Has Mass    1.00783
   Atom   11 Element C  Has Mass   12.00000
   Atom   12 Element H  Has Mass    1.00783
   Atom   13 Element O  Has Mass   15.99491
   Atom   14 Element H  Has Mass    1.00783
   Atom   15 Element O  Has Mass   15.99491
   Atom   16 Element H  Has Mass    1.00783
   Atom   17 Element H  Has Mass    1.00783
   Atom   18 Element H  Has Mass    1.00783
   Atom   19 Element O  Has Mass   15.99491
   Atom   20 Element O  Has Mass   15.99491
   Molecular Mass:   157.050110 amu
   Principal axes and moments of inertia in amu*Bohr^2:
                             1           2           3
    Eigenvalues --     1243.82673  1556.43486  2386.81916
          X               0.99721    -0.07351     0.01315
          Y               0.07292     0.99651     0.04067
          Z              -0.01610    -0.03960     0.99909
   Rotational Symmetry Number is   1
   The Molecule is an Asymmetric Top
   Translational Enthalpy:        0.889 kcal/mol
   Rotational Enthalpy:           0.889 kcal/mol
   Vibrational Enthalpy:        103.028 kcal/mol
   gas constant (RT):             0.592 kcal/mol
   Translational Entropy:        41.063  cal/mol.K
   Rotational Entropy:           29.914  cal/mol.K
   Vibrational Entropy:          29.828  cal/mol.K

   Total Enthalpy:              105.398 kcal/mol
   Total Entropy:               100.806  cal/mol.K
 Total job time:  59726.29s(wall), 461907.80s(cpu)
        *  Thank you very much for using Q-Chem.  Have a nice day.  *
