 Q-Chem 5.4, Q-Chem, Inc., Pleasanton, CA (2021)
 Q-Chem 5.4.1 for Intel X86 EM64T Linux

User input:
--------------------------------------------------------------
$molecule
0 2
H         3.3425281811   -1.2815284811   -0.0899667004
C         2.4052138735   -0.7540194642    0.0603563319
C         1.2441052975   -1.4132809973    0.0845356607
H         1.1769234818   -2.4906005075   -0.0387000831
C        -0.0293264665   -0.6736515409    0.3818851196
H        -0.2461867319   -0.7107929394    1.4566363535
C        -0.0373417915    0.7903325507   -0.0960399932
C        -1.1419071957    1.5991790725    0.5778358544
C         1.3080940242    1.4280394237    0.1833923738
H         1.3281187780    2.5138370424    0.2475293979
C         2.4336006249    0.7072921016    0.2295306117
H         3.3960650020    1.1948137683    0.3579711062
O        -2.4329877875    1.0559972287    0.3546767804
H        -1.0769583180    2.6312530712    0.2048631450
O        -0.3294159315    0.8655430729   -1.4979363500
H         0.3675942921    0.3802865019   -1.9725954606
H        -0.9785904625    1.6120800193    1.6589236204
H        -2.5379700867    0.9924616194   -0.6094454737
O        -1.1446598996   -1.3552920203   -0.2813286762
O        -1.3678787552   -2.5216368439    0.2711379366
$end

$rem
BASIS = 6-311++G(2df,2p)
GUI = 2
JOB_TYPE = Optimization
METHOD = wB97M-V
SCF_ALGORITHM = DIIS_GDM
MAX_SCF_CYCLES = 400
GEOM_OPT_MAX_CYCLES = 150
SCF_CONVERGENCE = 7
THRESH = 12
UNRESTRICTED = 1
Solvent_method = SMD
$end
--------------------------------------------------------------

   24    -572.8962343605      9.97e-08  Convergence criterion met
 Total energy in the final basis set =     -572.8911205609
   19    -572.8969146404      7.49e-08  Convergence criterion met
 Total energy in the final basis set =     -572.8918097318
   20    -572.8969660620      8.02e-08  Convergence criterion met
 Total energy in the final basis set =     -572.8918669552
   19    -572.8969868663      7.48e-08  Convergence criterion met
 Total energy in the final basis set =     -572.8918827236
   19    -572.8969971220      9.98e-08  Convergence criterion met
 Total energy in the final basis set =     -572.8918882625
   20    -572.8970010917      6.35e-08  Convergence criterion met
 Total energy in the final basis set =     -572.8918903946

             Standard Nuclear Orientation (Angstroms)
    I     Atom           X                Y                Z
 ----------------------------------------------------------------
    1      H       3.3414122728    -1.2705085981    -0.0927755438
    2      C       2.4051711421    -0.7516131488     0.0590718811
    3      C       1.2527706449    -1.4131669833     0.0710961635
    4      H       1.1913694699    -2.4841656140    -0.0681725105
    5      C      -0.0202945272    -0.6817041358     0.3690525252
    6      H      -0.2231004103    -0.7038777696     1.4425828314
    7      C      -0.0377296027     0.7759164619    -0.1142958616
    8      C      -1.1334048302     1.5896649009     0.5610980382
    9      C       1.2987996993     1.4159226462     0.1875394956
   10      H       1.3108222204     2.4960925363     0.2679257566
   11      C       2.4215243295     0.7033273458     0.2470461804
   12      H       3.3732964289     1.1950003705     0.3970136597
   13      O      -2.4364437680     1.0627695830     0.3706292225
   14      H      -1.0701730044     2.6126877661     0.1809928613
   15      O      -0.3063462792     0.8520772795    -1.5190637570
   16      H       0.4064937043     0.4117204427    -1.9984312936
   17      H      -0.9517438991     1.6083808413     1.6340742096
   18      H      -2.6120084025     1.0323228935    -0.5765821368
   19      O      -1.1319810399    -1.3803071812    -0.2711801035
   20      O      -1.3994140203    -2.5002269589     0.3356399366
 ----------------------------------------------------------------

   20    -572.8970027188      9.00e-08  Convergence criterion met
 Total energy in the final basis set =     -572.8918908604
 Final energy is   -572.891890860381
 **  OPTIMIZATION CONVERGED  **

                    Orbital Energies (a.u.)
 --------------------------------------------------------------

 Alpha MOs
 -- Occupied --
-19.4658 -19.4159 -19.3471 -19.3396 -10.4190 -10.4152 -10.3876 -10.3529
-10.3528 -10.3510 -10.3489  -1.3464  -1.1775  -1.1524  -1.0265  -0.9668
 -0.8953  -0.8668  -0.8008  -0.7345  -0.7272  -0.6730  -0.6541  -0.6398
 -0.6245  -0.6074  -0.5984  -0.5646  -0.5579  -0.5419  -0.5275  -0.5223
 -0.4949  -0.4750  -0.4582  -0.4438  -0.4389  -0.4114  -0.4049  -0.3890
 -0.3765  -0.3296

 Beta MOs
 -- Occupied --
-19.4549 -19.3977 -19.3471 -19.3395 -10.4189 -10.4156 -10.3876 -10.3528
-10.3526 -10.3510 -10.3489  -1.3201  -1.1772  -1.1522  -1.0054  -0.9562
 -0.8950  -0.8605  -0.7970  -0.7317  -0.7246  -0.6689  -0.6429  -0.6277
 -0.6088  -0.6029  -0.5861  -0.5539  -0.5408  -0.5367  -0.5255  -0.5173
 -0.4786  -0.4744  -0.4551  -0.4423  -0.4348  -0.4025  -0.3865  -0.3787
 -0.3295

          Ground-State Mulliken Net Atomic Charges

     Atom                 Charge (a.u.)    Spin (a.u.)
  --------------------------------------------------------
      1 H                     0.289692       0.001024
      2 C                    -0.685880      -0.001837
      3 C                     0.105225       0.017443
      4 H                     0.308654      -0.002075
      5 C                    -0.585552       0.000654
      6 H                     0.278108       0.006166
      7 C                     0.742886      -0.002200
      8 C                    -0.520989      -0.001123
      9 C                    -0.618337      -0.001267
     10 H                     0.283618       0.000161
     11 C                    -0.079556       0.001615
     12 H                     0.303894       0.000015
     13 O                    -0.405836       0.005733
     14 H                     0.236521      -0.000179
     15 O                    -0.416878       0.000929
     16 H                     0.334246      -0.000186
     17 H                     0.244276       0.000300
     18 H                     0.340021      -0.001091
     19 O                     0.053632       0.324683
     20 O                    -0.207745       0.651237
  --------------------------------------------------------
  Sum of atomic charges =     0.000000

                    Cartesian Multipole Moments
 -----------------------------------------------------------------
    Charge (ESU x 10^10)
                 0.0000
    Dipole Moment (Debye)
         X       5.9892      Y       2.5031      Z      -0.2577
       Tot       6.4963
    Quadrupole Moments (Debye-Ang)
        XX     -66.2217     XY      -4.1738     YY     -67.5035
        XZ       1.5624     YZ       2.3809     ZZ     -64.7310

 Total job time:  4033.56s(wall), 30949.33s(cpu)
        *  Thank you very much for using Q-Chem.  Have a nice day.  *
