 Q-Chem 5.4, Q-Chem, Inc., Pleasanton, CA (2021)
 Q-Chem 5.4.1 for Intel X86 EM64T Linux

User input:
--------------------------------------------------------------
$molecule
0 2
C        -0.3078310227   -0.1644196543    0.8268813898
C        -0.4614953476   -1.4475241448    1.2368322324
C        -1.6342088633   -2.1764041516    0.9313925925
C        -2.6831758041   -1.5459870036    0.2222149615
C        -2.5761197590   -0.2619514340   -0.1983901968
C        -1.3411895213    0.5530839377    0.0102954824
C        -0.7705979294    0.9417319298   -1.3678783904
H         0.5877298026    0.3929082172    1.0755982680
H         0.3194227059   -1.9229921808    1.8159840550
H        -1.7405915389   -3.1993800117    1.2616018488
H        -3.5920840748   -2.0992055524    0.0243966821
H        -3.3853628211    0.2227058277   -0.7303132190
H        -0.4141564047    0.0502950539   -1.8856057985
O         0.2602172607    1.9156834194   -1.2505439927
H        -1.5657596448    1.4003337908   -1.9543855575
H         1.0629493795    1.4816124218   -0.9419391430
O        -1.7283520013    1.7771363819    0.6750258395
H        -1.0042368153    2.4033961530    0.5360118459
$end

$rem
BASIS = 6-311++G(2df,2p)
GUI = 2
JOB_TYPE = Frequency
METHOD = wB97M-V
SOLVENT_METHOD = SMD
SCF_ALGORITHM = DIIS_GDM
MAX_SCF_CYCLES = 400
SCF_CONVERGENCE = 7
THRESH = 12
UNRESTRICTED = 1
SYMMETRY_IGNORE = 1
$end
--------------------------------------------------------------

   19    -422.5367018164      3.98e-08  Convergence criterion met
 Total energy in the final basis set =     -422.5311040496
   17    -422.5367011463      5.84e-08  Convergence criterion met
 Total energy in the final basis set =     -422.5311031247
   17    -422.5367006271      5.78e-08  Convergence criterion met
 Total energy in the final basis set =     -422.5311031115
   17    -422.5367010797      5.93e-08  Convergence criterion met
 Total energy in the final basis set =     -422.5311028955
   15    -422.5367001164      7.49e-08  Convergence criterion met
 Total energy in the final basis set =     -422.5311027646
   17    -422.5367016182      5.97e-08  Convergence criterion met
 Total energy in the final basis set =     -422.5311035301
   17    -422.5367010297      6.04e-08  Convergence criterion met
 Total energy in the final basis set =     -422.5311035820
   17    -422.5367016023      6.82e-08  Convergence criterion met
 Total energy in the final basis set =     -422.5311038081
   17    -422.5367018175      5.81e-08  Convergence criterion met
 Total energy in the final basis set =     -422.5311038284
   17    -422.5367013088      5.83e-08  Convergence criterion met
 Total energy in the final basis set =     -422.5311034678
   17    -422.5367012879      5.82e-08  Convergence criterion met
 Total energy in the final basis set =     -422.5311035951
   17    -422.5367022075      5.82e-08  Convergence criterion met
 Total energy in the final basis set =     -422.5311035671
   17    -422.5367005281      5.82e-08  Convergence criterion met
 Total energy in the final basis set =     -422.5311036349
   17    -422.5367021428      5.82e-08  Convergence criterion met
 Total energy in the final basis set =     -422.5311040118
   17    -422.5367013989      5.82e-08  Convergence criterion met
 Total energy in the final basis set =     -422.5311039960

                    Orbital Energies (a.u.)
 --------------------------------------------------------------

 Alpha MOs
 -- Occupied --
-19.3436 -19.3375 -10.4068 -10.3873 -10.3521 -10.3479 -10.3475 -10.3439
-10.3429  -1.1731  -1.1461  -0.9772  -0.8835  -0.8765  -0.7987  -0.7230
 -0.7209  -0.6372  -0.6308  -0.6067  -0.5843  -0.5776  -0.5291  -0.5282
 -0.5240  -0.4845  -0.4682  -0.4635  -0.4420  -0.4382  -0.4103  -0.3869
 -0.3627  -0.2704

 Beta MOs
 -- Occupied --
-19.3434 -19.3361 -10.4075 -10.3861 -10.3465 -10.3455 -10.3444 -10.3425
-10.3421  -1.1715  -1.1442  -0.9704  -0.8770  -0.8709  -0.7901  -0.7180
 -0.7152  -0.6335  -0.6275  -0.6044  -0.5783  -0.5741  -0.5264  -0.5254
 -0.5210  -0.4784  -0.4637  -0.4519  -0.4359  -0.4276  -0.4047  -0.3790
 -0.3469

          Ground-State Mulliken Net Atomic Charges

     Atom                 Charge (a.u.)    Spin (a.u.)
  --------------------------------------------------------
      1 C                    -0.145079       0.383988
      2 C                    -0.391412      -0.156082
      3 C                    -0.459686       0.529336
      4 C                    -0.311699      -0.153114
      5 C                    -0.171551       0.376995
      6 C                     0.199843      -0.023625
      7 C                    -0.498754       0.026616
      8 H                     0.278722      -0.008156
      9 H                     0.293445       0.004638
     10 H                     0.283921      -0.009276
     11 H                     0.294419       0.004732
     12 H                     0.297387      -0.007709
     13 H                     0.224597       0.002901
     14 O                    -0.422100       0.006535
     15 H                     0.240777       0.002037
     16 H                     0.334562      -0.000404
     17 O                    -0.399703       0.018750
     18 H                     0.352310       0.001838
  --------------------------------------------------------
  Sum of atomic charges =     0.000000

                    Cartesian Multipole Moments
 -----------------------------------------------------------------
    Charge (ESU x 10^10)
                 0.0000
    Dipole Moment (Debye)
         X       2.4056      Y      -2.8210      Z      -0.9303
       Tot       3.8223
    Quadrupole Moments (Debye-Ang)
        XX     -53.8955     XY       6.7412     YY     -55.9502
        XZ       6.3224     YZ      -1.0774     ZZ     -57.6317

             Standard Nuclear Orientation (Angstroms)
    I     Atom           X                Y                Z
 ----------------------------------------------------------------
    1      C      -0.3078310227    -0.1644196543     0.8268813898
    2      C      -0.4614953476    -1.4475241448     1.2368322324
    3      C      -1.6342088633    -2.1764041516     0.9313925925
    4      C      -2.6831758041    -1.5459870036     0.2222149615
    5      C      -2.5761197590    -0.2619514340    -0.1983901968
    6      C      -1.3411895213     0.5530839377     0.0102954824
    7      C      -0.7705979294     0.9417319298    -1.3678783904
    8      H       0.5877298026     0.3929082172     1.0755982680
    9      H       0.3194227059    -1.9229921808     1.8159840550
   10      H      -1.7405915389    -3.1993800117     1.2616018488
   11      H      -3.5920840748    -2.0992055524     0.0243966821
   12      H      -3.3853628211     0.2227058277    -0.7303132190
   13      H      -0.4141564047     0.0502950539    -1.8856057985
   14      O       0.2602172607     1.9156834194    -1.2505439927
   15      H      -1.5657596448     1.4003337908    -1.9543855575
   16      H       1.0629493795     1.4816124218    -0.9419391430
   17      O      -1.7283520013     1.7771363819     0.6750258395
   18      H      -1.0042368153     2.4033961530     0.5360118459
 ----------------------------------------------------------------

 Frequency:        60.20                 120.03                 195.58
 Force Cnst:      0.0093                 0.0232                 0.0894
 Red. Mass:       4.3444                 2.7289                 3.9649
 IR Intens:        1.091                  3.467                  0.334
 Frequency:       281.48                 312.73                 344.59
 Force Cnst:      0.1511                 0.0708                 0.1387
 Red. Mass:       3.2378                 1.2279                 1.9820
 IR Intens:       60.071                103.124                 44.360
 Frequency:       362.51                 402.65                 432.06
 Force Cnst:      0.1246                 0.2398                 0.4551
 Red. Mass:       1.6092                 2.5104                 4.1381
 IR Intens:      200.164                 99.691                 10.766
 Frequency:       452.99                 577.60                 589.14
 Force Cnst:      0.3231                 1.1396                 0.5516
 Red. Mass:       2.6723                 5.7977                 2.6975
 IR Intens:        0.657                  6.210                 26.111
 Frequency:       612.14                 700.90                 749.76
 Force Cnst:      0.5351                 0.5084                 1.0783
 Red. Mass:       2.4236                 1.7564                 3.2556
 IR Intens:       25.709                159.361                 15.197
 Frequency:       781.44                 842.79                 909.84
 Force Cnst:      0.5760                 0.6158                 1.0389
 Red. Mass:       1.6011                 1.4715                 2.1301
 IR Intens:        9.108                 16.546                 37.648
 Frequency:       959.76                 994.80                1002.11
 Force Cnst:      1.7779                 1.4716                 0.7813
 Red. Mass:       3.2759                 2.5239                 1.3205
 IR Intens:       21.527                 18.142                  0.123
 Frequency:      1004.39                1024.94                1072.71
 Force Cnst:      0.8073                 2.3843                 2.0197
 Red. Mass:       1.3582                 3.8523                 2.9791
 IR Intens:        1.026                 95.460                229.133
 Frequency:      1077.78                1089.70                1117.93
 Force Cnst:      1.9265                 1.7549                 1.0141
 Red. Mass:       2.8148                 2.5083                 1.3773
 IR Intens:       63.571                 88.975                  9.288
 Frequency:      1179.43                1183.99                1269.06
 Force Cnst:      0.9215                 0.9434                 1.4609
 Red. Mass:       1.1243                 1.1422                 1.5396
 IR Intens:       52.124                 19.489                 29.113
 Frequency:      1320.60                1333.10                1371.06
 Force Cnst:      2.8134                 1.4483                 1.4251
 Red. Mass:       2.7381                 1.3832                 1.2867
 IR Intens:        0.672                 56.657                  6.539
 Frequency:      1395.81                1423.61                1457.00
 Force Cnst:      1.5450                 2.0392                 2.0927
 Red. Mass:       1.3460                 1.7078                 1.6732
 IR Intens:       37.045                 43.352                 33.278
 Frequency:      1470.40                1559.03                1621.61
 Force Cnst:      1.4023                 5.1403                 8.7084
 Red. Mass:       1.1008                 3.5895                 5.6208
 IR Intens:        4.851                  0.945                  1.291
 Frequency:      3064.68                3123.85                3173.23
 Force Cnst:      5.8561                 6.3739                 6.4466
 Red. Mass:       1.0582                 1.1086                 1.0866
 IR Intens:       45.084                 36.665                  8.546
 Frequency:      3181.72                3193.47                3197.67
 Force Cnst:      6.4771                 6.5689                 6.5949
 Red. Mass:       1.0859                 1.0932                 1.0947
 IR Intens:        6.830                 13.047                 29.253
 Frequency:      3219.90                3762.59                3827.34
 Force Cnst:      6.6866                 8.8884                 9.2049
 Red. Mass:       1.0946                 1.0656                 1.0665
 IR Intens:       17.901                154.424                111.193

 STANDARD THERMODYNAMIC QUANTITIES AT   298.15 K  AND     1.00 ATM

   This Molecule has  0 Imaginary Frequencies
   Zero point vibrational energy:       92.067 kcal/mol

   Atom    1 Element C  Has Mass   12.00000
   Atom    2 Element C  Has Mass   12.00000
   Atom    3 Element C  Has Mass   12.00000
   Atom    4 Element C  Has Mass   12.00000
   Atom    5 Element C  Has Mass   12.00000
   Atom    6 Element C  Has Mass   12.00000
   Atom    7 Element C  Has Mass   12.00000
   Atom    8 Element H  Has Mass    1.00783
   Atom    9 Element H  Has Mass    1.00783
   Atom   10 Element H  Has Mass    1.00783
   Atom   11 Element H  Has Mass    1.00783
   Atom   12 Element H  Has Mass    1.00783
   Atom   13 Element H  Has Mass    1.00783
   Atom   14 Element O  Has Mass   15.99491
   Atom   15 Element H  Has Mass    1.00783
   Atom   16 Element H  Has Mass    1.00783
   Atom   17 Element O  Has Mass   15.99491
   Atom   18 Element H  Has Mass    1.00783
   Molecular Mass:   125.060290 amu
   Principal axes and moments of inertia in amu*Bohr^2:
                             1           2           3
    Eigenvalues --      591.48520  1414.21136  1576.72199
          X               0.33826     0.92869    -0.15204
          Y               0.85331    -0.23458     0.46565
          Z              -0.39678     0.28725     0.87181
   Rotational Symmetry Number is   1
   The Molecule is an Asymmetric Top
   Translational Enthalpy:        0.889 kcal/mol
   Rotational Enthalpy:           0.889 kcal/mol
   Vibrational Enthalpy:         95.701 kcal/mol
   gas constant (RT):             0.592 kcal/mol
   Translational Entropy:        40.384  cal/mol.K
   Rotational Entropy:           28.668  cal/mol.K
   Vibrational Entropy:          20.972  cal/mol.K

   Total Enthalpy:               98.071 kcal/mol
   Total Entropy:                90.025  cal/mol.K
 Total job time:  31426.45s(wall), 243273.34s(cpu)
        *  Thank you very much for using Q-Chem.  Have a nice day.  *
