 Q-Chem 5.4, Q-Chem, Inc., Pleasanton, CA (2021)
 Q-Chem 5.4.1 for Intel X86 EM64T Linux

User input:
--------------------------------------------------------------
$molecule
0 2
C        -0.3007674927   -0.1802444109    0.8231948056
C        -0.4596137950   -1.4681811946    1.2359244491
C        -1.6434300797   -2.1911855966    0.9375353575
C        -2.6957695360   -1.5508453758    0.2335354838
C        -2.5819775660   -0.2609377067   -0.1878366670
C        -1.3369087483    0.5486264084    0.0108095731
C        -0.7614866139    0.9459294142   -1.3686498193
H         0.6034237767    0.3741003482    1.0682158781
H         0.3248744770   -1.9513164369    1.8129852797
H        -1.7555143691   -3.2178922081    1.2698721059
H        -3.6149635185   -2.0991770760    0.0434544134
H        -3.3968320383    0.2334510635   -0.7115980484
H        -0.3635496306    0.0664077941   -1.8868562366
O         0.2262137213    1.9637349226   -1.2256187576
H        -1.5645738549    1.3816693162   -1.9710158561
H         1.0342687396    1.5438825970   -0.8877580826
O        -1.7014812471    1.7821469863    0.6681267320
H        -0.9867546242    2.4008541552    0.4228582893
$end

$rem
BASIS = 6-311++G(2df,2p)
GUI = 2
JOB_TYPE = Optimization
METHOD = wB97M-V
SCF_ALGORITHM = DIIS_GDM
MAX_SCF_CYCLES = 400
GEOM_OPT_MAX_CYCLES = 150
SCF_CONVERGENCE = 7
THRESH = 12
UNRESTRICTED = 1
Solvent_method = SMD
$end
--------------------------------------------------------------

   19    -422.5360215467      4.45e-08  Convergence criterion met
 Total energy in the final basis set =     -422.5304236286
   17    -422.5366449604      6.18e-08  Convergence criterion met
 Total energy in the final basis set =     -422.5310552842
   17    -422.5366789687      6.10e-08  Convergence criterion met
 Total energy in the final basis set =     -422.5310892214
   17    -422.5366939288      6.01e-08  Convergence criterion met
 Total energy in the final basis set =     -422.5310996750
   17    -422.5367026370      6.05e-08  Convergence criterion met
 Total energy in the final basis set =     -422.5311033160

             Standard Nuclear Orientation (Angstroms)
    I     Atom           X                Y                Z
 ----------------------------------------------------------------
    1      C      -0.3078310227    -0.1644196543     0.8268813898
    2      C      -0.4614953476    -1.4475241448     1.2368322324
    3      C      -1.6342088633    -2.1764041516     0.9313925925
    4      C      -2.6831758041    -1.5459870036     0.2222149615
    5      C      -2.5761197590    -0.2619514340    -0.1983901968
    6      C      -1.3411895213     0.5530839377     0.0102954824
    7      C      -0.7705979294     0.9417319298    -1.3678783904
    8      H       0.5877298026     0.3929082172     1.0755982680
    9      H       0.3194227059    -1.9229921808     1.8159840550
   10      H      -1.7405915389    -3.1993800117     1.2616018488
   11      H      -3.5920840748    -2.0992055524     0.0243966821
   12      H      -3.3853628211     0.2227058277    -0.7303132190
   13      H      -0.4141564047     0.0502950539    -1.8856057985
   14      O       0.2602172607     1.9156834194    -1.2505439927
   15      H      -1.5657596448     1.4003337908    -1.9543855575
   16      H       1.0629493795     1.4816124218    -0.9419391430
   17      O      -1.7283520013     1.7771363819     0.6750258395
   18      H      -1.0042368153     2.4033961530     0.5360118459
 ----------------------------------------------------------------

   17    -422.5367018163      5.83e-08  Convergence criterion met
 Total energy in the final basis set =     -422.5311040495
 Final energy is   -422.531104049487
 **  OPTIMIZATION CONVERGED  **

                    Orbital Energies (a.u.)
 --------------------------------------------------------------

 Alpha MOs
 -- Occupied --
-19.3436 -19.3375 -10.4068 -10.3873 -10.3521 -10.3479 -10.3475 -10.3439
-10.3429  -1.1731  -1.1461  -0.9772  -0.8835  -0.8765  -0.7987  -0.7230
 -0.7209  -0.6372  -0.6308  -0.6067  -0.5843  -0.5776  -0.5290  -0.5282
 -0.5240  -0.4845  -0.4682  -0.4635  -0.4420  -0.4382  -0.4103  -0.3869
 -0.3627  -0.2704

 Beta MOs
 -- Occupied --
-19.3434 -19.3361 -10.4075 -10.3861 -10.3465 -10.3455 -10.3444 -10.3425
-10.3421  -1.1715  -1.1442  -0.9705  -0.8770  -0.8709  -0.7901  -0.7180
 -0.7152  -0.6336  -0.6275  -0.6044  -0.5783  -0.5741  -0.5264  -0.5254
 -0.5210  -0.4784  -0.4637  -0.4519  -0.4359  -0.4276  -0.4047  -0.3790
 -0.3469

          Ground-State Mulliken Net Atomic Charges

     Atom                 Charge (a.u.)    Spin (a.u.)
  --------------------------------------------------------
      1 C                    -0.145024       0.383984
      2 C                    -0.391335      -0.156083
      3 C                    -0.459639       0.529335
      4 C                    -0.311698      -0.153112
      5 C                    -0.171677       0.377003
      6 C                     0.199999      -0.023630
      7 C                    -0.498852       0.026618
      8 H                     0.278717      -0.008156
      9 H                     0.293441       0.004638
     10 H                     0.283922      -0.009276
     11 H                     0.294420       0.004731
     12 H                     0.297385      -0.007708
     13 H                     0.224598       0.002901
     14 O                    -0.422157       0.006535
     15 H                     0.240763       0.002036
     16 H                     0.334558      -0.000403
     17 O                    -0.399746       0.018747
     18 H                     0.352326       0.001839
  --------------------------------------------------------
  Sum of atomic charges =     0.000000

                    Cartesian Multipole Moments
 -----------------------------------------------------------------
    Charge (ESU x 10^10)
                 0.0000
    Dipole Moment (Debye)
         X       2.4056      Y      -2.8211      Z      -0.9280
       Tot       3.8219
    Quadrupole Moments (Debye-Ang)
        XX     -53.8961     XY       6.7418     YY     -55.9497
        XZ       6.3214     YZ      -1.0719     ZZ     -57.6303

 Total job time:  1795.63s(wall), 13878.18s(cpu)
        *  Thank you very much for using Q-Chem.  Have a nice day.  *
