 Q-Chem 5.4, Q-Chem, Inc., Pleasanton, CA (2021)
 Q-Chem 5.4.1 for Intel X86 EM64T Linux

User input:
--------------------------------------------------------------
$molecule
0 1
C         0.6577412246   -0.7568490746   -0.0096139290
C        -0.6701156037   -0.6838368670   -0.1000838746
C        -1.4324432050    0.5817270245   -0.1643395068
C         1.5481813523    0.4140574228    0.0925204336
O        -1.0330251109    1.5829476068   -0.7237663859
O         2.7459442998    0.3212729499   -0.1022268890
H         1.1522162581   -1.7200477685    0.0170106400
H        -1.2665065116   -1.5878134749   -0.0993892462
H        -2.4174951740    0.5679754932    0.3220117904
H         1.1052501706    1.3737271877    0.3810697676
$end

$rem
BASIS = 6-311++G(2df,2p)
GUI = 2
JOB_TYPE = Frequency
METHOD = wB97M-V
SOLVENT_METHOD = SMD
SCF_ALGORITHM = DIIS_GDM
MAX_SCF_CYCLES = 400
SCF_CONVERGENCE = 7
THRESH = 12
$end
--------------------------------------------------------------

   15    -305.2412544710      5.37e-08  Convergence criterion met
 Total energy in the final basis set =     -305.2331301472
   15    -305.2412527854      7.09e-08  Convergence criterion met
 Total energy in the final basis set =     -305.2331286450
   15    -305.2412531664      7.11e-08  Convergence criterion met
 Total energy in the final basis set =     -305.2331286548
   15    -305.2412522080      6.93e-08  Convergence criterion met
 Total energy in the final basis set =     -305.2331290185
   15    -305.2412545573      7.39e-08  Convergence criterion met
 Total energy in the final basis set =     -305.2331290930
   15    -305.2412541337      6.99e-08  Convergence criterion met
 Total energy in the final basis set =     -305.2331299292
   15    -305.2412543589      6.88e-08  Convergence criterion met
 Total energy in the final basis set =     -305.2331299135
   15    -305.2412530952      7.45e-08  Convergence criterion met
 Total energy in the final basis set =     -305.2331300293
   15    -305.2412541616      7.88e-08  Convergence criterion met
 Total energy in the final basis set =     -305.2331299658
   15    -305.2412539248      6.66e-08  Convergence criterion met
 Total energy in the final basis set =     -305.2331299621
   15    -305.2412546234      7.14e-08  Convergence criterion met
 Total energy in the final basis set =     -305.2331299384
   15    -305.2412537741      7.16e-08  Convergence criterion met
 Total energy in the final basis set =     -305.2331296473
   15    -305.2412542094      7.09e-08  Convergence criterion met
 Total energy in the final basis set =     -305.2331296859
   15    -305.2412541231      7.05e-08  Convergence criterion met
 Total energy in the final basis set =     -305.2331300661
   15    -305.2412546667      7.10e-08  Convergence criterion met
 Total energy in the final basis set =     -305.2331300758

                    Orbital Energies (a.u.)
 --------------------------------------------------------------

 Alpha MOs
 -- Occupied --
-19.3528 -19.3474 -10.4494 -10.4449 -10.3746 -10.3722  -1.1988  -1.1923
 -0.9437  -0.8138  -0.7301  -0.6743  -0.6209  -0.5996  -0.5784  -0.5413
 -0.5287  -0.5159  -0.5100  -0.3968  -0.3912  -0.3725

          Ground-State Mulliken Net Atomic Charges

     Atom                 Charge (a.u.)
  ----------------------------------------
      1 C                     0.066563
      2 C                    -0.047595
      3 C                    -0.093785
      4 C                    -0.078695
      5 O                    -0.359625
      6 O                    -0.407739
      7 H                     0.270410
      8 H                     0.271307
      9 H                     0.173486
     10 H                     0.205673
  ----------------------------------------
  Sum of atomic charges =     0.000000

                    Cartesian Multipole Moments
 -----------------------------------------------------------------
    Charge (ESU x 10^10)
                -0.0000
    Dipole Moment (Debye)
         X      -4.9738      Y      -3.5714      Z       2.1791
       Tot       6.4994
    Quadrupole Moments (Debye-Ang)
        XX     -44.2215     XY       1.5707     YY     -36.5278
        XZ      -0.1544     YZ       3.3385     ZZ     -36.2623

             Standard Nuclear Orientation (Angstroms)
    I     Atom           X                Y                Z
 ----------------------------------------------------------------
    1      C       0.6577412246    -0.7568490746    -0.0096139290
    2      C      -0.6701156037    -0.6838368670    -0.1000838746
    3      C      -1.4324432050     0.5817270245    -0.1643395068
    4      C       1.5481813523     0.4140574228     0.0925204336
    5      O      -1.0330251109     1.5829476068    -0.7237663859
    6      O       2.7459442998     0.3212729499    -0.1022268890
    7      H       1.1522162581    -1.7200477685     0.0170106400
    8      H      -1.2665065116    -1.5878134749    -0.0993892462
    9      H      -2.4174951740     0.5679754932     0.3220117904
   10      H       1.1052501706     1.3737271877     0.3810697676
 ----------------------------------------------------------------

 Frequency:        57.49                 145.67                 211.46
 Force Cnst:      0.0092                 0.0331                 0.1166
 Red. Mass:       4.7447                 2.6460                 4.4257
 IR Intens:        6.552                 18.242                 21.320
 Frequency:       319.77                 371.37                 554.41
 Force Cnst:      0.1915                 0.2798                 0.9765
 Red. Mass:       3.1788                 3.4435                 5.3921
 IR Intens:        8.016                 23.493                 15.813
 Frequency:       665.80                 821.36                 942.88
 Force Cnst:      0.3722                 1.2152                 1.3979
 Red. Mass:       1.4250                 3.0572                 2.6688
 IR Intens:      109.466                 27.480                 87.219
 Frequency:      1020.26                1030.28                1053.48
 Force Cnst:      0.8777                 1.1403                 1.0602
 Red. Mass:       1.4311                 1.8234                 1.6213
 IR Intens:       17.400                 27.552                  4.044
 Frequency:      1106.04                1210.02                1377.64
 Force Cnst:      1.7039                 1.0353                 1.4634
 Red. Mass:       2.3639                 1.2001                 1.3087
 IR Intens:       46.505                 27.168                 20.716
 Frequency:      1420.36                1436.54                1696.59
 Force Cnst:      1.4494                 1.7206                15.9495
 Red. Mass:       1.2194                 1.4151                 9.4047
 IR Intens:       45.047                 15.206                284.595
 Frequency:      1739.56                1752.70                3025.86
 Force Cnst:     13.9391                15.4797                 5.8606
 Red. Mass:       7.8182                 8.5526                 1.0864
 IR Intens:      517.777                278.572                 93.207
 Frequency:      3056.67                3188.31                3204.09
 Force Cnst:      5.9871                 6.5072                 6.6395
 Red. Mass:       1.0876                 1.0865                 1.0977
 IR Intens:       34.010                  1.617                  0.071

 STANDARD THERMODYNAMIC QUANTITIES AT   298.15 K  AND     1.00 ATM

   This Molecule has  0 Imaginary Frequencies
   Zero point vibrational energy:       44.901 kcal/mol

   Atom    1 Element C  Has Mass   12.00000
   Atom    2 Element C  Has Mass   12.00000
   Atom    3 Element C  Has Mass   12.00000
   Atom    4 Element C  Has Mass   12.00000
   Atom    5 Element O  Has Mass   15.99491
   Atom    6 Element O  Has Mass   15.99491
   Atom    7 Element H  Has Mass    1.00783
   Atom    8 Element H  Has Mass    1.00783
   Atom    9 Element H  Has Mass    1.00783
   Atom   10 Element H  Has Mass    1.00783
   Molecular Mass:    84.021140 amu
   Principal axes and moments of inertia in amu*Bohr^2:
                             1           2           3
    Eigenvalues --      224.47706   753.53756   957.81565
          X               0.98279     0.17411    -0.06179
          Y              -0.15835     0.96615     0.20367
          Z               0.09515    -0.19038     0.97709
   Rotational Symmetry Number is   1
   The Molecule is an Asymmetric Top
   Translational Enthalpy:        0.889 kcal/mol
   Rotational Enthalpy:           0.889 kcal/mol
   Vibrational Enthalpy:         46.999 kcal/mol
   gas constant (RT):             0.592 kcal/mol
   Translational Entropy:        39.199  cal/mol.K
   Rotational Entropy:           26.585  cal/mol.K
   Vibrational Entropy:          13.289  cal/mol.K

   Total Enthalpy:               49.369 kcal/mol
   Total Entropy:                79.072  cal/mol.K
 Total job time:  2268.32s(wall), 33663.18s(cpu)
        *  Thank you very much for using Q-Chem.  Have a nice day.  *
