 Q-Chem 5.4, Q-Chem, Inc., Pleasanton, CA (2021)
 Q-Chem 5.4.1 for Intel X86 EM64T Linux

User input:
--------------------------------------------------------------
$molecule
0 1
C         0.6665910915   -0.7297538152    0.0064554640
C        -0.6719181649   -0.6525333364   -0.0340336703
C        -1.4945883553    0.5826330814   -0.1040317547
C         1.6145835781    0.4090218206   -0.0094261068
O        -1.0603014350    1.7215497729   -0.1539757043
O         2.8198516685    0.2120091204    0.0261505045
H         1.1434970676   -1.7064865530    0.0581098675
H        -1.2488203458   -1.5737037738   -0.0127035354
H        -2.5833821459    0.4044442097   -0.1097646888
H         1.2042347413    1.4259799733   -0.0535875757
$end

$rem
BASIS = 6-311++G(2df,2p)
GUI = 2
JOB_TYPE = Optimization
METHOD = wB97M-V
SCF_ALGORITHM = DIIS_GDM
MAX_SCF_CYCLES = 400
GEOM_OPT_MAX_CYCLES = 150
SCF_CONVERGENCE = 7
THRESH = 12
Solvent_method = SMD
$end
--------------------------------------------------------------

   15    -305.2395280360      6.09e-08  Convergence criterion met
 Total energy in the final basis set =     -305.2312098353
   15    -305.2397544294      5.72e-08  Convergence criterion met
 Total energy in the final basis set =     -305.2314402982
   15    -305.2397546205      6.29e-08  Convergence criterion met
 Total energy in the final basis set =     -305.2314380638
   15    -305.2397798576      5.89e-08  Convergence criterion met
 Total energy in the final basis set =     -305.2314590063
   15    -305.2398599488      6.89e-08  Convergence criterion met
 Total energy in the final basis set =     -305.2315331065
   16    -305.2301770860      3.51e-08  Convergence criterion met
 Total energy in the final basis set =     -305.2221903841
   15    -305.2398421832      9.62e-08  Convergence criterion met
 Total energy in the final basis set =     -305.2315701262
   16    -305.2403637162      3.44e-08  Convergence criterion met
   15    -305.2412482812      6.76e-08  Convergence criterion met
 Total energy in the final basis set =     -305.2330866028
   15    -305.2412602954      7.02e-08  Convergence criterion met
 Total energy in the final basis set =     -305.2331184049
   15    -305.2412662966      6.08e-08  Convergence criterion met
 Total energy in the final basis set =     -305.2331238462
   15    -305.2412652426      6.52e-08  Convergence criterion met
 Total energy in the final basis set =     -305.2331262015
   15    -305.2412600652      5.61e-08  Convergence criterion met
 Total energy in the final basis set =     -305.2331286835
   15    -305.2412561300      5.74e-08  Convergence criterion met
 Total energy in the final basis set =     -305.2331297516

             Standard Nuclear Orientation (Angstroms)
    I     Atom           X                Y                Z
 ----------------------------------------------------------------
    1      C       0.6577412246    -0.7568490746    -0.0096139290
    2      C      -0.6701156037    -0.6838368670    -0.1000838746
    3      C      -1.4324432050     0.5817270245    -0.1643395068
    4      C       1.5481813523     0.4140574228     0.0925204336
    5      O      -1.0330251109     1.5829476068    -0.7237663859
    6      O       2.7459442998     0.3212729499    -0.1022268890
    7      H       1.1522162581    -1.7200477685     0.0170106400
    8      H      -1.2665065116    -1.5878134749    -0.0993892462
    9      H      -2.4174951740     0.5679754932     0.3220117904
   10      H       1.1052501706     1.3737271877     0.3810697676
 ----------------------------------------------------------------

   15    -305.2412544711      6.57e-08  Convergence criterion met
 Total energy in the final basis set =     -305.2331301473
 Final energy is   -305.233130147269
 **  OPTIMIZATION CONVERGED  **

                    Orbital Energies (a.u.)
 --------------------------------------------------------------

 Alpha MOs
 -- Occupied --
-19.3528 -19.3474 -10.4494 -10.4449 -10.3746 -10.3722  -1.1988  -1.1923
 -0.9437  -0.8138  -0.7300  -0.6742  -0.6209  -0.5996  -0.5784  -0.5413
 -0.5287  -0.5158  -0.5100  -0.3968  -0.3912  -0.3725

          Ground-State Mulliken Net Atomic Charges

     Atom                 Charge (a.u.)
  ----------------------------------------
      1 C                     0.066606
      2 C                    -0.047534
      3 C                    -0.093766
      4 C                    -0.078687
      5 O                    -0.359620
      6 O                    -0.407758
      7 H                     0.270389
      8 H                     0.271300
      9 H                     0.173495
     10 H                     0.205574
  ----------------------------------------
  Sum of atomic charges =     0.000000

                    Cartesian Multipole Moments
 -----------------------------------------------------------------
    Charge (ESU x 10^10)
                 0.0000
    Dipole Moment (Debye)
         X      -4.9736      Y      -3.5717      Z       2.1796
       Tot       6.4995
    Quadrupole Moments (Debye-Ang)
        XX     -44.2207     XY       1.5701     YY     -36.5281
        XZ      -0.1537     YZ       3.3390     ZZ     -36.2623

 Total job time:  1005.17s(wall), 7751.16s(cpu)
        *  Thank you very much for using Q-Chem.  Have a nice day.  *
