 Q-Chem 5.4, Q-Chem, Inc., Pleasanton, CA (2021)
 Q-Chem 5.4.1 for Intel X86 EM64T Linux

User input:
--------------------------------------------------------------
$molecule
0 2
O    3.2728655   -1.1272789   -0.4413443
C    2.3843854   -0.0626282   -0.1648973
C    2.8693129    0.9475516    0.8576887
O    2.1160263    1.8986981    1.1195014
C    4.1465244    0.7642275    1.4725948
C    4.8557377    1.6830578    2.4062115
C    4.0576264    2.8455988    2.9893513
O    2.9521921    2.4139577    3.7565897
O    4.9281462    3.5569677    3.8290237
H    3.2366653   -1.7565474    0.2867858
H    1.4130692   -0.4272403    0.1757466
H    2.2255828    0.4817604   -1.0955043
H    4.6867517   -0.1397818    1.2320076
H    5.7117004    2.1182582    1.8783691
H    3.7160618    3.4746774    2.1676357
H    2.2347646    2.2510865    3.1275664
H    4.5222193    4.4105672    4.0180663
O    5.5508814    0.5970827    3.8132834
O    6.6352206   -0.2086685    3.3599061
H    7.3973760    0.3740087    3.4994576
$end

$rem
BASIS = 6-311++G(2df,2p)
GUI = 2
JOB_TYPE = Frequency
METHOD = wB97M-V
SCF_ALGORITHM = DIIS_GDM
MAX_SCF_CYCLES = 400
SCF_CONVERGENCE = 6
THRESH = 11
solvent_method = SMD
$end

--------------------------------------------------------------

   21    -647.1344860097      5.78e-07  Convergence criterion met
 Total energy in the final basis set =     -647.1272405286
   17    -647.1344845035      6.99e-07  Convergence criterion met
 Total energy in the final basis set =     -647.1272395885
   17    -647.1344868528      6.98e-07  Convergence criterion met
 Total energy in the final basis set =     -647.1272406598
   17    -647.1344877168      6.95e-07  Convergence criterion met
 Total energy in the final basis set =     -647.1272406399
   17    -647.1344827136      7.02e-07  Convergence criterion met
 Total energy in the final basis set =     -647.1272386189
   17    -647.1344864797      6.97e-07  Convergence criterion met
 Total energy in the final basis set =     -647.1272403355
   17    -647.1344841094      6.97e-07  Convergence criterion met
 Total energy in the final basis set =     -647.1272392769
   17    -647.1344882466      7.35e-07  Convergence criterion met
 Frequency:      -364.60                  40.04                  78.66
 Force Cnst:      0.6262                 0.0056                 0.0092
 Red. Mass:       7.9949                 5.9544                 2.5221
 IR Intens:       39.372                  8.739                 11.571
 Frequency:        90.48                 115.11                 132.64
 Force Cnst:      0.0272                 0.0463                 0.0483
 Red. Mass:       5.6480                 5.9332                 4.6636
 IR Intens:        5.707                 13.468                 12.448
 Frequency:       157.39                 190.90                 198.57
 Force Cnst:      0.0965                 0.1402                 0.1845
 Red. Mass:       6.6110                 6.5285                 7.9425
 IR Intens:       18.471                  1.886                  9.922
 Frequency:       271.08                 290.00                 299.68
 Force Cnst:      0.2380                 0.0581                 0.2451
 Red. Mass:       5.4982                 1.1726                 4.6326
 IR Intens:       25.537                240.463                 12.825
 Frequency:       334.41                 389.52                 398.86
 Force Cnst:      0.1640                 0.0973                 0.1417
 Red. Mass:       2.4887                 1.0880                 1.5116
 IR Intens:       14.378                237.945                133.479
 Frequency:       421.92                 468.32                 514.66
 Force Cnst:      0.1489                 0.3554                 0.3888
 Red. Mass:       1.4198                 2.7499                 2.4916
 IR Intens:      243.201                 94.316                 29.322
 Frequency:       528.65                 549.08                 665.31
 Force Cnst:      1.0184                 0.8009                 0.5389
 Red. Mass:       6.1853                 4.5087                 2.0662
 IR Intens:       18.018                  3.484                  7.758
 Frequency:       701.51                 752.45                 822.06
 Force Cnst:      1.3236                 0.9595                 1.4637
 Red. Mass:       4.5650                 2.8762                 3.6763
 IR Intens:       26.623                 24.032                 13.024
 Frequency:       929.00                 950.48                 959.58
 Force Cnst:      2.6175                 1.7773                 1.0058
 Red. Mass:       5.1477                 3.3390                 1.8539
 IR Intens:      167.046                 24.353                 41.290
 Frequency:      1000.79                1076.94                1146.51
 Force Cnst:      0.9764                 1.2598                 1.2652
 Red. Mass:       1.6546                 1.8435                 1.6336
 IR Intens:       36.808                  8.856                119.352
 Frequency:      1179.90                1210.53                1224.40
 Force Cnst:      1.4243                 1.0100                 1.0213
 Red. Mass:       1.7365                 1.1698                 1.1562
 IR Intens:       66.613                 85.102                 35.306
 Frequency:      1248.85                1266.96                1303.97
 Force Cnst:      2.5374                 2.3839                 1.8451
 Red. Mass:       2.7613                 2.5207                 1.8418
 IR Intens:       93.073                289.197                132.181
 Frequency:      1317.03                1383.40                1391.45
 Force Cnst:      1.5989                 1.4947                 1.2595
 Red. Mass:       1.5645                 1.3256                 1.1041
 IR Intens:      133.058                  6.368                 70.129
 Frequency:      1399.11                1408.76                1426.84
 Force Cnst:      1.5145                 1.9145                 2.5052
 Red. Mass:       1.3132                 1.6373                 2.0885
 IR Intens:       77.949                199.358                140.946
 Frequency:      1450.92                1453.28                1588.62
 Force Cnst:      2.0702                 1.8777                12.2633
 Red. Mass:       1.6691                 1.5090                 8.2474
 IR Intens:      132.739                 15.812                235.319
 Frequency:      3065.42                3067.44                3097.80
 Force Cnst:      5.8779                 6.0092                 6.1347
 Red. Mass:       1.0617                 1.0840                 1.0850
 IR Intens:       33.746                  2.127                 20.351
 Frequency:      3120.83                3223.50                3745.80
 Force Cnst:      6.3290                 6.6530                 8.8320
 Red. Mass:       1.1029                 1.0867                 1.0684
 IR Intens:        7.134                  4.728                200.358
 Frequency:      3748.83                3825.52                3831.93
 Force Cnst:      8.8222                 9.1963                 9.2307
 Red. Mass:       1.0655                 1.0665                 1.0670
 IR Intens:      234.948                155.016                126.898

 STANDARD THERMODYNAMIC QUANTITIES AT   298.15 K  AND     1.00 ATM

   This Molecule has  1 Imaginary Frequencies
   Zero point vibrational energy:       93.574 kcal/mol

   Atom    1 Element O  Has Mass   15.99491
   Atom    2 Element C  Has Mass   12.00000
   Atom    3 Element C  Has Mass   12.00000
   Atom    4 Element O  Has Mass   15.99491
   Atom    5 Element C  Has Mass   12.00000
   Atom    6 Element C  Has Mass   12.00000
   Atom    7 Element C  Has Mass   12.00000
   Atom    8 Element O  Has Mass   15.99491
   Atom    9 Element O  Has Mass   15.99491
   Atom   10 Element H  Has Mass    1.00783
   Atom   11 Element H  Has Mass    1.00783
   Atom   12 Element H  Has Mass    1.00783
   Atom   13 Element H  Has Mass    1.00783
   Atom   14 Element H  Has Mass    1.00783
   Atom   15 Element H  Has Mass    1.00783
   Atom   16 Element H  Has Mass    1.00783
   Atom   17 Element H  Has Mass    1.00783
   Atom   18 Element O  Has Mass   15.99491
   Atom   19 Element O  Has Mass   15.99491
   Atom   20 Element H  Has Mass    1.00783
   Molecular Mass:   165.039930 amu
   Principal axes and moments of inertia in amu*Bohr^2:
                             1           2           3
    Eigenvalues --     1390.75619  2569.35196  3665.08118
          X               0.48101    -0.68084    -0.55234
          Y               0.44837     0.73243    -0.51236
          Z               0.75338    -0.00120     0.65758
   Rotational Symmetry Number is   1
   The Molecule is an Asymmetric Top
   Translational Enthalpy:        0.889 kcal/mol
   Rotational Enthalpy:           0.889 kcal/mol
   Vibrational Enthalpy:         99.707 kcal/mol
   gas constant (RT):             0.592 kcal/mol
   Translational Entropy:        41.211  cal/mol.K
   Rotational Entropy:           30.949  cal/mol.K
   Vibrational Entropy:          38.962  cal/mol.K

   Total Enthalpy:              102.077 kcal/mol
   Total Entropy:               111.123  cal/mol.K
 Total job time:  25360.62s(wall), 356325.90s(cpu)
        *  Thank you very much for using Q-Chem.  Have a nice day.  *
 Q-Chem 5.4, Q-Chem, Inc., Pleasanton, CA (2021)
 Q-Chem 5.4.1 for Intel X86 EM64T Linux

User input:
--------------------------------------------------------------

$rem
JOBTYPE = ts
SCF_GUESS = read
GEOM_OPT_HESSIAN = read
MAX_SCF_CYCLES = 350
GEOM_OPT_DMAX = 60
GEOM_OPT_MAX_CYCLES = 250
METHOD = wB97M-v
BASIS = 6-311++G(2df,2p)
SCF_CONVERGENCE = 7
THRESH = 12
SCF_ALGORITHM = DIIS_GDM
solvent_method = SMD
$end

$molecule
read
$end
--------------------------------------------------------------

   22    -647.1529472485      4.04e-08  Convergence criterion met
 Total energy in the final basis set =     -647.1458537700
   22    -647.1530109772      4.14e-08  Convergence criterion met
 Total energy in the final basis set =     -647.1459218429
   22    -647.1530616755      4.18e-08  Convergence criterion met
 Total energy in the final basis set =     -647.1459773480
   22    -647.1531044422      4.05e-08  Convergence criterion met
 Total energy in the final basis set =     -647.1460244903
   22    -647.1531299086      3.96e-08  Convergence criterion met
 Total energy in the final basis set =     -647.1460527257
   22    -647.1531366423      3.87e-08  Convergence criterion met
 Total energy in the final basis set =     -647.1460624073

             Standard Nuclear Orientation (Angstroms)
    I     Atom           X                Y                Z
 ----------------------------------------------------------------
    1      O       3.3615137733    -0.8706715963    -0.7367121160
    2      C       2.3520910218    -0.1477068439    -0.0607564403
    3      C       2.8275778489     0.8013837565     1.0207510304
    4      O       1.9657061020     1.4742642462     1.5919493370
    5      C       4.2479380434     0.8866824524     1.3083078479
    6      C       4.8428275029     1.7534762022     2.2003721520
    7      C       4.1674600878     2.9239332985     2.8793290580
    8      O       3.1385633700     2.5532948608     3.7701574444
    9      O       5.1580174946     3.5953326212     3.6121964546
   10      H       3.6711810400    -1.5808697093    -0.1647728906
   11      H       1.6178552510    -0.8128749143     0.3993373094
   12      H       1.8289668604     0.4567566373    -0.8014742884
   13      H       4.8919205719     0.2042346476     0.7748594930
   14      H       5.9175330046     1.8599998503     2.1254664951
   15      H       3.7606462335     3.5803549902     2.1020541754
   16      H       2.4363747177     2.1793599046     3.2087877532
   17      H       4.7872181121     4.4343308623     3.9095619598
   18      O       4.9797942500     0.5436807331     3.7108345668
   19      O       6.1224363210    -0.1847727329     3.6233614752
   20      H       6.8374883930     0.4451659335     3.8144289830
 ----------------------------------------------------------------

   22    -647.1531367829      4.29e-08  Convergence criterion met
 Total energy in the final basis set =     -647.1460628171
 Final energy is   -647.146062817129
 **  OPTIMIZATION CONVERGED  **

                    Orbital Energies (a.u.)
 --------------------------------------------------------------

 Alpha MOs
 -- Occupied --
-19.4245 -19.4216 -19.3490 -19.3450 -19.3411 -19.3354 -10.4555 -10.4473
-10.3976 -10.3944 -10.3675  -1.2995  -1.2048  -1.1904  -1.1640  -1.1329
 -1.0045  -0.9349  -0.8601  -0.8136  -0.7419  -0.6796  -0.6556  -0.6539
 -0.6439  -0.6255  -0.6076  -0.5931  -0.5822  -0.5766  -0.5591  -0.5308
 -0.5215  -0.5124  -0.4916  -0.4799  -0.4541  -0.4336  -0.4278  -0.4242
 -0.4143  -0.3907  -0.3648  -0.3453

 Beta MOs
 -- Occupied --
-19.4175 -19.4082 -19.3490 -19.3450 -19.3380 -19.3355 -10.4553 -10.4478
-10.4005 -10.3944 -10.3616  -1.2810  -1.2044  -1.1863  -1.1635  -1.1330
 -0.9811  -0.9254  -0.8586  -0.8105  -0.7396  -0.6761  -0.6535  -0.6499
 -0.6428  -0.6216  -0.6046  -0.5806  -0.5703  -0.5620  -0.5365  -0.5252
 -0.5183  -0.5052  -0.4894  -0.4791  -0.4500  -0.4323  -0.4251  -0.4048
 -0.3948  -0.3655  -0.3565

          Ground-State Mulliken Net Atomic Charges

     Atom                 Charge (a.u.)    Spin (a.u.)
  --------------------------------------------------------
      1 O                    -0.426679       0.000084
      2 C                    -0.375943       0.001912
      3 C                     0.184579       0.003535
      4 O                    -0.453344       0.112198
      5 C                     0.076275       0.375193
      6 C                    -0.116479      -0.159039
      7 C                    -0.352290       0.009576
      8 O                    -0.427026      -0.002624
      9 O                    -0.448856      -0.001043
     10 H                     0.335224       0.000284
     11 H                     0.216282       0.001229
     12 H                     0.206971       0.001051
     13 H                     0.264517      -0.007144
     14 H                     0.356378       0.012402
     15 H                     0.284177      -0.004179
     16 H                     0.328427      -0.000791
     17 H                     0.339768       0.000440
     18 O                    -0.122914       0.524328
     19 O                    -0.220114       0.137429
     20 H                     0.351047      -0.004842
  --------------------------------------------------------
  Sum of atomic charges =     0.000000

                    Cartesian Multipole Moments
 -----------------------------------------------------------------
    Charge (ESU x 10^10)
                -0.0000
    Dipole Moment (Debye)
         X       3.0650      Y      -0.0223      Z      -2.8486
       Tot       4.1844
    Quadrupole Moments (Debye-Ang)
        XX     -35.0055     XY       6.8168     YY     -54.3893
        XZ      -0.6652     YZ      -2.5890     ZZ     -90.1690

 Total job time:  12232.15s(wall), 172784.81s(cpu)
        *  Thank you very much for using Q-Chem.  Have a nice day.  *
