 Q-Chem 5.4, Q-Chem, Inc., Pleasanton, CA (2021)
 Q-Chem 5.4.1 for Intel X86 EM64T Linux

User input:
--------------------------------------------------------------
$molecule
0 2
H    0.4280940    1.1305117    1.5638196
C   -0.2980639    0.9622754    0.7843881
C   -1.5482277    1.6277616    0.7939650
H   -1.9227161    2.0429023    1.7203592
C   -2.2581510    1.7468155   -0.3540926
H   -3.2183552    2.2412980   -0.3830952
C    0.1904622    0.5401601   -0.5636458
H    1.1207145   -0.0185851   -0.5161435
C   -0.8800857   -0.1387710   -1.4123971
H   -0.5041278   -0.5187134   -2.2972819
C   -1.7586941    1.0979574   -1.5999936
H   -2.4385733    1.0199690   -2.4434067
O   -1.6484532   -1.0751367   -0.7062561
H   -1.9009180   -0.7902157    0.1810412
O    0.4815739    1.7117281   -1.3510828
O   -0.7893224    2.1049116   -1.9601144
O   -0.9947140   -0.6488105    3.0731718
O   -0.7927080   -0.8662774    1.8869578
$end

$rem
BASIS = 6-311++G(2df,2p)
GUI = 2
JOB_TYPE = Frequency
METHOD = wB97M-V
SCF_ALGORITHM = DIIS_GDM
MAX_SCF_CYCLES = 400
SCF_CONVERGENCE = 6
THRESH = 11
solvent_method = SMD
$end

--------------------------------------------------------------

   26    -608.6789291572      4.49e-07  Convergence criterion met
 Total energy in the final basis set =     -608.6761320491
   18    -608.6789279999      7.17e-07  Convergence criterion met
 Total energy in the final basis set =     -608.6761307276
   18    -608.6789296268      7.26e-07  Convergence criterion met
 Total energy in the final basis set =     -608.6761326815
   18    -608.6789273240      7.10e-07  Convergence criterion met
 Total energy in the final basis set =     -608.6761303169
   18    -608.6789308617      7.33e-07  Convergence criterion met
 Total energy in the final basis set =     -608.6761336521
   18    -608.6789300275      7.16e-07  Convergence criterion met
 Total energy in the final basis set =     -608.6761325604
   18    -608.6789275157      7.13e-07  Convergence criterion met
 Total energy in the final basis set =     -608.6761307656
   18    -608.6789220793      6.62e-07  Convergence criterion met
 Frequency:      -480.73                 -72.26                 -37.98
 Force Cnst:      1.3078                 0.0133                 0.0052
 Red. Mass:       9.6045                 4.3232                 6.1434
 IR Intens:     2886.430                 48.077                  7.099
 Frequency:        74.97                 130.80                 188.15
 Force Cnst:      0.0164                 0.0323                 0.0785
 Red. Mass:       4.9631                 3.2082                 3.7636
 IR Intens:       24.346                 27.016                 48.401
 Frequency:       219.07                 268.04                 306.39
 Force Cnst:      0.1086                 0.3728                 0.2061
 Red. Mass:       3.8401                 8.8078                 3.7261
 IR Intens:       48.342                 93.097                101.580
 Frequency:       325.87                 402.72                 527.44
 Force Cnst:      0.2699                 0.3628                 0.7134
 Red. Mass:       4.3145                 3.7972                 4.3525
 IR Intens:       35.481                130.136                 23.437
 Frequency:       554.34                 619.67                 622.32
 Force Cnst:      0.9188                 0.7981                 1.1187
 Red. Mass:       5.0748                 3.5275                 4.9029
 IR Intens:        2.145                  9.512                 16.265
 Frequency:       720.21                 753.03                 827.80
 Force Cnst:      1.1023                 0.5349                 0.8193
 Red. Mass:       3.6069                 1.6011                 2.0293
 IR Intens:      106.641                207.187                370.096
 Frequency:       848.60                 858.48                 884.26
 Force Cnst:      1.5804                 1.4081                 0.7634
 Red. Mass:       3.7249                 3.2429                 1.6571
 IR Intens:       60.443                  9.281                 41.033
 Frequency:       960.67                 968.35                 989.23
 Force Cnst:      2.4537                 1.7231                 1.7201
 Red. Mass:       4.5125                 3.1189                 2.9834
 IR Intens:      235.817                 11.466                 49.405
 Frequency:      1010.87                1019.48                1036.18
 Force Cnst:      1.1095                 1.3676                 0.8896
 Red. Mass:       1.8429                 2.2334                 1.4063
 IR Intens:        7.466                 38.843                 19.234
 Frequency:      1104.82                1110.58                1137.81
 Force Cnst:      0.9518                 0.9554                 1.0454
 Red. Mass:       1.3235                 1.3148                 1.3706
 IR Intens:       49.001                143.595                 49.006
 Frequency:      1206.50                1252.18                1274.74
 Force Cnst:      1.5218                 1.5246                 1.4249
 Red. Mass:       1.7744                 1.6503                 1.4884
 IR Intens:       13.404                 31.421                137.036
 Frequency:      1284.87                1297.71                1326.14
 Force Cnst:      2.1911                 2.3311                 1.5453
 Red. Mass:       2.2526                 2.3494                 1.4914
 IR Intens:     2671.322                721.752                 49.278
 Frequency:      1369.62                1376.85                1393.88
 Force Cnst:      2.2853                 2.5017                 2.7915
 Red. Mass:       2.0678                 2.2398                 2.4386
 IR Intens:      712.721                127.595                222.791
 Frequency:      1452.53                1569.70                3148.65
 Force Cnst:      2.9430                 6.5791                 6.3546
 Red. Mass:       2.3675                 4.5319                 1.0879
 IR Intens:      220.669                 20.588                  9.322
 Frequency:      3156.32                3197.05                3221.70
 Force Cnst:      6.4006                 6.5586                 6.6946
 Red. Mass:       1.0905                 1.0891                 1.0947
 IR Intens:       14.507                 11.614                  5.987
 Frequency:      3237.07                3662.81                3786.08
 Force Cnst:      6.7488                 8.6158                 9.0075
 Red. Mass:       1.0931                 1.0900                 1.0665
 IR Intens:        1.872                  6.436                159.016

 STANDARD THERMODYNAMIC QUANTITIES AT   298.15 K  AND     1.00 ATM

   This Molecule has  3 Imaginary Frequencies
   Zero point vibrational energy:       81.035 kcal/mol

   Atom    1 Element H  Has Mass    1.00783
   Atom    2 Element C  Has Mass   12.00000
   Atom    3 Element C  Has Mass   12.00000
   Atom    4 Element H  Has Mass    1.00783
   Atom    5 Element C  Has Mass   12.00000
   Atom    6 Element H  Has Mass    1.00783
   Atom    7 Element C  Has Mass   12.00000
   Atom    8 Element H  Has Mass    1.00783
   Atom    9 Element C  Has Mass   12.00000
   Atom   10 Element H  Has Mass    1.00783
   Atom   11 Element C  Has Mass   12.00000
   Atom   12 Element H  Has Mass    1.00783
   Atom   13 Element O  Has Mass   15.99491
   Atom   14 Element H  Has Mass    1.00783
   Atom   15 Element O  Has Mass   15.99491
   Atom   16 Element O  Has Mass   15.99491
   Atom   17 Element O  Has Mass   15.99491
   Atom   18 Element O  Has Mass   15.99491
   Molecular Mass:   159.029360 amu
   Principal axes and moments of inertia in amu*Bohr^2:
                             1           2           3
    Eigenvalues --      866.05780  2081.44448  2169.69164
          X              -0.03788     0.20664     0.97768
          Y              -0.47270     0.85830    -0.19972
          Z               0.88041     0.46971    -0.06517
   Rotational Symmetry Number is   1
   The Molecule is an Asymmetric Top
   Translational Enthalpy:        0.889 kcal/mol
   Rotational Enthalpy:           0.889 kcal/mol
   Vibrational Enthalpy:         84.604 kcal/mol
   gas constant (RT):             0.592 kcal/mol
   Translational Entropy:        41.101  cal/mol.K
   Rotational Entropy:           29.748  cal/mol.K
   Vibrational Entropy:          20.561  cal/mol.K

   Total Enthalpy:               86.974 kcal/mol
   Total Entropy:                91.410  cal/mol.K
 Total job time:  23253.23s(wall), 334381.77s(cpu)
        *  Thank you very much for using Q-Chem.  Have a nice day.  *
 Q-Chem 5.4, Q-Chem, Inc., Pleasanton, CA (2021)
 Q-Chem 5.4.1 for Intel X86 EM64T Linux

User input:
--------------------------------------------------------------

$rem
JOBTYPE = ts
SCF_GUESS = read
GEOM_OPT_HESSIAN = read
MAX_SCF_CYCLES = 350
GEOM_OPT_DMAX = 60
GEOM_OPT_MAX_CYCLES = 250
METHOD = wB97M-v
BASIS = 6-311++G(2df,2p)
SCF_CONVERGENCE = 7
THRESH = 12
SCF_ALGORITHM = DIIS_GDM
solvent_method = SMD
$end

$molecule
read
$end
--------------------------------------------------------------

   21    -608.6991602144      8.71e-08  Convergence criterion met
 Total energy in the final basis set =     -608.6964292461
   22    -608.6991721390      5.12e-08  Convergence criterion met
 Total energy in the final basis set =     -608.6964388363
   22    -608.6991728523      5.04e-08  Convergence criterion met
 Total energy in the final basis set =     -608.6964392373
   20    -608.6991728294      6.61e-08  Convergence criterion met
 Total energy in the final basis set =     -608.6964397694
   20    -608.6991618307      7.85e-08  Convergence criterion met
 Total energy in the final basis set =     -608.6964346587
   22    -608.6991708756      4.73e-08  Convergence criterion met
 Total energy in the final basis set =     -608.6964401904

             Standard Nuclear Orientation (Angstroms)
    I     Atom           X                Y                Z
 ----------------------------------------------------------------
    1      H       0.5906379914     1.3933246678     1.4855869677
    2      C      -0.1760361526     1.1250209978     0.7760007418
    3      C      -1.4686099818     1.6961545426     0.8485175636
    4      H      -1.8011284630     2.1432855116     1.7759471124
    5      C      -2.2849890460     1.6616967333    -0.2331791997
    6      H      -3.2815072922     2.0786360675    -0.2062195019
    7      C       0.2394186968     0.5433902691    -0.5421778743
    8      H       1.1431972857    -0.0570396423    -0.4918669024
    9      C      -0.9154213202    -0.1334001729    -1.2893377129
   10      H      -0.5442664284    -0.5195938662    -2.2350992624
   11      C      -1.7392193065     1.1286053670    -1.5299141438
   12      H      -2.4864708714     1.0250900971    -2.3108219934
   13      O      -1.5773968804    -1.1887190255    -0.6414291226
   14      H      -2.0858757565    -0.8505665971     0.1072418071
   15      O       0.5348009789     1.6327756872    -1.4372866816
   16      O      -0.7436958905     2.0254488727    -2.0493995709
   17      O      -1.6550477466    -0.9062343901     2.2938039307
   18      O      -0.4806556167    -0.6280942199     2.0958268426
 ----------------------------------------------------------------

   22    -608.6991713941      4.80e-08  Convergence criterion met
 Total energy in the final basis set =     -608.6964402367
 Final energy is   -608.696440236732
 **  OPTIMIZATION CONVERGED  **

                    Orbital Energies (a.u.)
 --------------------------------------------------------------

 Alpha MOs
 -- Occupied --
-19.4762 -19.4506 -19.4058 -19.4047 -19.3505 -10.4109 -10.4104 -10.4100
-10.3736 -10.3616 -10.3596  -1.3981  -1.2708  -1.1740  -1.0690  -0.9763
 -0.9451  -0.8862  -0.8384  -0.7632  -0.7207  -0.6843  -0.6750  -0.6553
 -0.6474  -0.6389  -0.6119  -0.5890  -0.5606  -0.5564  -0.5371  -0.5272
 -0.5215  -0.5047  -0.4709  -0.4658  -0.4202  -0.4077  -0.4041  -0.3958
 -0.3789  -0.3582

 Beta MOs
 -- Occupied --
-19.4491 -19.4259 -19.4072 -19.4055 -19.3505 -10.4105 -10.4103 -10.4100
-10.3812 -10.3662 -10.3573  -1.3493  -1.2729  -1.1742  -1.0716  -0.9806
 -0.8879  -0.8787  -0.8447  -0.7642  -0.7250  -0.6846  -0.6770  -0.6344
 -0.6013  -0.5920  -0.5739  -0.5603  -0.5585  -0.5497  -0.5391  -0.5282
 -0.5229  -0.5058  -0.4743  -0.4668  -0.4240  -0.4152  -0.4071  -0.3633
 -0.2870

          Ground-State Mulliken Net Atomic Charges

     Atom                 Charge (a.u.)    Spin (a.u.)
  --------------------------------------------------------
      1 H                     0.366726       0.019295
      2 C                    -0.050096      -0.454629
      3 C                    -0.437067       0.098521
      4 H                     0.304533      -0.004768
      5 C                    -0.166015      -0.317489
      6 H                     0.304957       0.007312
      7 C                    -0.452695      -0.019431
      8 H                     0.290046      -0.004784
      9 C                    -0.056555      -0.002296
     10 H                     0.284761       0.001609
     11 C                    -0.276176       0.017447
     12 H                     0.295659      -0.002558
     13 O                    -0.413937      -0.007034
     14 H                     0.317230       0.001805
     15 O                    -0.126756      -0.030028
     16 O                    -0.124723      -0.018004
     17 O                    -0.071145       0.832867
     18 O                     0.011251       0.882163
  --------------------------------------------------------
  Sum of atomic charges =     0.000000

                    Cartesian Multipole Moments
 -----------------------------------------------------------------
    Charge (ESU x 10^10)
                 0.0000
    Dipole Moment (Debye)
         X      -1.5561      Y       0.8253      Z       1.3149
       Tot       2.1981
    Quadrupole Moments (Debye-Ang)
        XX     -54.7041     XY      -8.8005     YY     -72.9919
        XZ       4.2289     YZ       9.2905     ZZ     -66.7690

 Total job time:  15871.90s(wall), 228668.46s(cpu)
        *  Thank you very much for using Q-Chem.  Have a nice day.  *
