 Q-Chem 5.4, Q-Chem, Inc., Pleasanton, CA (2021)
 Q-Chem 5.4.1 for Intel X86 EM64T Linux

User input:
--------------------------------------------------------------
$molecule
0 2
C         2.3265989285   -1.2003247668   -0.8080398755
O         1.5855263136   -0.6455998246    0.2411026411
C         3.7775777768   -1.3618100507   -0.3598081852
O         3.9058977228   -1.6120189808    0.9384698621
C         2.7937628928    1.8686914797    0.2817583745
O         3.9595764327    1.6011318364    0.0757606221
H         2.3142253864   -0.5675307671   -1.6928316347
H         0.7650516517   -0.2950855500   -0.1271510992
H         2.4124031010    1.9869035545    1.3023563338
H         2.0893227776    2.0232938564   -0.5444509349
O         1.8321272808   -2.4539279610   -1.2153669942
H         1.8390115753   -3.0516334791   -0.4556891397
O         4.7025176426   -1.3188246093   -1.1375561095
O         4.4672419019    1.0642761123   -2.6299426345
H         4.8447327371   -1.7566367526    1.1411351766
H         4.3211640785    1.2695940024   -1.6755179029
$end

$rem
BASIS = 6-311++G(2df,2p)
GUI = 2
JOB_TYPE = Frequency
METHOD = wB97M-V
SOLVENT_METHOD = SMD
SCF_ALGORITHM = DIIS_GDM
MAX_SCF_CYCLES = 400
SCF_CONVERGENCE = 7
THRESH = 12
$end
--------------------------------------------------------------

   49    -569.8415331070      4.08e-08  Convergence criterion met
 Total energy in the final basis set =     -569.8317263543
   24    -569.8415272082      6.17e-08  Convergence criterion met
 Total energy in the final basis set =     -569.8317251090
   24    -569.8415371515      6.10e-08  Convergence criterion met
 Total energy in the final basis set =     -569.8317256301
   24    -569.8415297850      6.16e-08  Convergence criterion met
 Total energy in the final basis set =     -569.8317250994
   24    -569.8415347039      6.06e-08  Convergence criterion met
 Total energy in the final basis set =     -569.8317254515
   24    -569.8415336573      6.17e-08  Convergence criterion met
 Total energy in the final basis set =     -569.8317251313
   24    -569.8415304130      6.13e-08  Convergence criterion met
 Total energy in the final basis set =     -569.8317252801
   24    -569.8415350718      6.12e-08  Convergence criterion met
 Total energy in the final basis set =     -569.8317262569
   24    -569.8415323335      6.12e-08  Convergence criterion met
 Total energy in the final basis set =     -569.8317261868
   24    -569.8415333127      6.14e-08  Convergence criterion met
 Total energy in the final basis set =     -569.8317262619
   24    -569.8415328254      6.11e-08  Convergence criterion met
 Total energy in the final basis set =     -569.8317263687
   24    -569.8415333714      6.11e-08  Convergence criterion met
 Total energy in the final basis set =     -569.8317262817
   24    -569.8415327441      8.00e-08  Convergence criterion met
 Total energy in the final basis set =     -569.8317263280
   24    -569.8415322168      6.08e-08  Convergence criterion met
 Total energy in the final basis set =     -569.8317255138
   24    -569.8415325810      6.14e-08  Convergence criterion met
 Total energy in the final basis set =     -569.8317257787

                    Orbital Energies (a.u.)
 --------------------------------------------------------------

 Alpha MOs
 -- Occupied --
-19.3924 -19.3875 -19.3592 -19.3578 -19.3566 -19.3430 -10.4955 -10.4646
-10.4432  -1.2612  -1.2108  -1.2015  -1.1689  -1.1465  -1.1268  -0.8563
 -0.7532  -0.7514  -0.6763  -0.6456  -0.6258  -0.6199  -0.6100  -0.5912
 -0.5676  -0.5580  -0.5416  -0.5355  -0.5153  -0.5087  -0.4663  -0.4561
 -0.4515  -0.4419  -0.4187  -0.3980  -0.3861

 Beta MOs
 -- Occupied --
-19.3923 -19.3632 -19.3593 -19.3578 -19.3566 -19.3425 -10.4955 -10.4646
-10.4432  -1.2609  -1.2108  -1.2015  -1.1682  -1.1465  -1.0565  -0.8562
 -0.7531  -0.7513  -0.6762  -0.6454  -0.6238  -0.6176  -0.6088  -0.5866
 -0.5673  -0.5413  -0.5380  -0.5342  -0.5150  -0.4658  -0.4550  -0.4434
 -0.4222  -0.4176  -0.3982  -0.3852

          Ground-State Mulliken Net Atomic Charges

     Atom                 Charge (a.u.)    Spin (a.u.)
  --------------------------------------------------------
      1 C                    -0.041524      -0.002242
      2 O                    -0.366042       0.000045
      3 C                     0.173311       0.012277
      4 O                    -0.254262       0.001836
      5 C                    -0.074403      -0.000424
      6 O                    -0.298857      -0.000593
      7 H                     0.278018      -0.000309
      8 H                     0.342458       0.000006
      9 H                     0.189269      -0.000217
     10 H                     0.217873      -0.000173
     11 O                    -0.398720      -0.000040
     12 H                     0.347582       0.000025
     13 O                    -0.440017       0.002300
     14 O                    -0.404890       0.998292
     15 H                     0.352942      -0.000158
     16 H                     0.377263      -0.010625
  --------------------------------------------------------
  Sum of atomic charges =     0.000000

                    Cartesian Multipole Moments
 -----------------------------------------------------------------
    Charge (ESU x 10^10)
                 0.0000
    Dipole Moment (Debye)
         X      -5.5848      Y       1.3022      Z       5.3071
       Tot       7.8135
    Quadrupole Moments (Debye-Ang)
        XX     -87.3883     XY      -3.6440     YY     -45.1884
        XZ      27.5900     YZ      -4.5253     ZZ     -68.1893

             Standard Nuclear Orientation (Angstroms)
    I     Atom           X                Y                Z
 ----------------------------------------------------------------
    1      C       2.3265989285    -1.2003247668    -0.8080398755
    2      O       1.5855263136    -0.6455998246     0.2411026411
    3      C       3.7775777768    -1.3618100507    -0.3598081852
    4      O       3.9058977228    -1.6120189808     0.9384698621
    5      C       2.7937628928     1.8686914797     0.2817583745
    6      O       3.9595764327     1.6011318364     0.0757606221
    7      H       2.3142253864    -0.5675307671    -1.6928316347
    8      H       0.7650516517    -0.2950855500    -0.1271510992
    9      H       2.4124031010     1.9869035545     1.3023563338
   10      H       2.0893227776     2.0232938564    -0.5444509349
   11      O       1.8321272808    -2.4539279610    -1.2153669942
   12      H       1.8390115753    -3.0516334791    -0.4556891397
   13      O       4.7025176426    -1.3188246093    -1.1375561095
   14      O       4.4672419019     1.0642761123    -2.6299426345
   15      H       4.8447327371    -1.7566367526     1.1411351766
   16      H       4.3211640785     1.2695940024    -1.6755179029
 ----------------------------------------------------------------

 Frequency:        28.69                  42.31                  46.38
 Force Cnst:      0.0037                 0.0074                 0.0085
 Red. Mass:       7.6120                 6.9866                 6.7227
 IR Intens:        1.452                  2.075                  6.320
 Frequency:        71.86                  88.77                  99.24
 Force Cnst:      0.0290                 0.0455                 0.0538
 Red. Mass:       9.5372                 9.8027                 9.2756
 IR Intens:        4.176                  0.276                  1.334
 Frequency:       109.58                 143.47                 202.99
 Force Cnst:      0.0240                 0.0404                 0.1921
 Red. Mass:       3.3871                 3.3338                 7.9120
 IR Intens:       17.954                 42.225                 30.337
 Frequency:       247.54                 288.08                 305.93
 Force Cnst:      0.1677                 0.1896                 0.0576
 Red. Mass:       4.6438                 3.8785                 1.0442
 IR Intens:        2.883                  5.307                  1.871
 Frequency:       343.14                 367.50                 438.67
 Force Cnst:      0.0768                 0.0980                 0.9289
 Red. Mass:       1.1075                 1.2314                 8.1927
 IR Intens:      200.455                220.232                 41.086
 Frequency:       538.65                 578.44                 589.75
 Force Cnst:      0.1773                 0.2445                 0.9402
 Red. Mass:       1.0372                 1.2403                 4.5878
 IR Intens:      206.319                158.398                137.407
 Frequency:       596.81                 652.58                 790.19
 Force Cnst:      0.2191                 0.9080                 2.3073
 Red. Mass:       1.0439                 3.6189                 6.2717
 IR Intens:      179.352                154.655                 44.689
 Frequency:       873.35                1134.38                1170.00
 Force Cnst:      1.7703                 2.0460                 1.7539
 Red. Mass:       3.9392                 2.6986                 2.1747
 IR Intens:       11.932                186.223                620.765
 Frequency:      1227.37                1230.97                1257.50
 Force Cnst:      1.1864                 1.1142                 1.7023
 Red. Mass:       1.3367                 1.2480                 1.8271
 IR Intens:       30.956                 43.564                276.525
 Frequency:      1262.16                1320.10                1371.80
 Force Cnst:      1.2594                 2.2712                 1.9734
 Red. Mass:       1.3418                 2.2120                 1.7799
 IR Intens:       16.970                 24.071                107.425
 Frequency:      1427.12                1460.81                1511.63
 Force Cnst:      1.5294                 2.7005                 1.5197
 Red. Mass:       1.2746                 2.1479                 1.1288
 IR Intens:       92.832                 81.123                 51.674
 Frequency:      1760.94                1770.74                2999.60
 Force Cnst:     11.6963                18.1989                 5.5537
 Red. Mass:       6.4019                 9.8512                 1.0476
 IR Intens:      269.958                661.463                 73.025
 Frequency:      3096.16                3132.51                3436.51
 Force Cnst:      6.3410                 6.2947                 7.4442
 Red. Mass:       1.1227                 1.0888                 1.0699
 IR Intens:       56.166                 18.849                824.682
 Frequency:      3732.59                3789.25                3810.00
 Force Cnst:      8.7400                 9.0212                 9.1217
 Red. Mass:       1.0647                 1.0664                 1.0665
 IR Intens:      216.784                138.668                162.823

 STANDARD THERMODYNAMIC QUANTITIES AT   298.15 K  AND     1.00 ATM

   This Molecule has  0 Imaginary Frequencies
   Zero point vibrational energy:       70.544 kcal/mol

   Atom    1 Element C  Has Mass   12.00000
   Atom    2 Element O  Has Mass   15.99491
   Atom    3 Element C  Has Mass   12.00000
   Atom    4 Element O  Has Mass   15.99491
   Atom    5 Element C  Has Mass   12.00000
   Atom    6 Element O  Has Mass   15.99491
   Atom    7 Element H  Has Mass    1.00783
   Atom    8 Element H  Has Mass    1.00783
   Atom    9 Element H  Has Mass    1.00783
   Atom   10 Element H  Has Mass    1.00783
   Atom   11 Element O  Has Mass   15.99491
   Atom   12 Element H  Has Mass    1.00783
   Atom   13 Element O  Has Mass   15.99491
   Atom   14 Element O  Has Mass   15.99491
   Atom   15 Element H  Has Mass    1.00783
   Atom   16 Element H  Has Mass    1.00783
   Molecular Mass:   139.024270 amu
   Principal axes and moments of inertia in amu*Bohr^2:
                             1           2           3
    Eigenvalues --     1093.97770  1618.28021  1853.69752
          X               0.38247    -0.65726     0.64940
          Y               0.91680     0.35734    -0.17830
          Z              -0.11486     0.66356     0.73925
   Rotational Symmetry Number is   1
   The Molecule is an Asymmetric Top
   Translational Enthalpy:        0.889 kcal/mol
   Rotational Enthalpy:           0.889 kcal/mol
   Vibrational Enthalpy:         76.952 kcal/mol
   gas constant (RT):             0.592 kcal/mol
   Translational Entropy:        40.700  cal/mol.K
   Rotational Entropy:           29.574  cal/mol.K
   Vibrational Entropy:          46.215  cal/mol.K

   Total Enthalpy:               79.322 kcal/mol
   Total Entropy:               116.489  cal/mol.K
 Total job time:  15980.60s(wall), 225801.18s(cpu)
        *  Thank you very much for using Q-Chem.  Have a nice day.  *
