 Q-Chem 5.4, Q-Chem, Inc., Pleasanton, CA (2021)
 Q-Chem 5.4.1 for Intel X86 EM64T Linux

User input:
--------------------------------------------------------------
$molecule
0 2
C         2.3679244741   -1.1689779572   -0.8318044897
O         1.6347355721   -0.5612002057    0.1995337940
C         3.8067347084   -1.3312167677   -0.3474961185
O         3.8754369364   -1.7381910254    0.9233249978
C         2.8161342404    1.8426205905    0.2692157964
O         4.0017265499    1.5901115021    0.1286855027
H         2.3832091628   -0.5679590893   -1.7435016241
H         0.7872105586   -0.2752740576   -0.1840032913
H         2.3768894277    1.9713155212    1.2692253798
H         2.1492204612    1.9869775756   -0.5939946362
O         1.8515870478   -2.4272837808   -1.1915657159
H         1.8359503466   -2.9727043770   -0.3845406677
O         4.7743301212   -1.1684863263   -1.0637558064
O         4.2052276448    1.0066888485   -2.6112982232
H         4.8185706110   -1.8759967003    1.1446283368
H         4.2518503370    1.2400743493   -1.6484247345
$end

$rem
BASIS = 6-311++G(2df,2p)
GUI = 2
JOB_TYPE = Optimization
METHOD = wB97M-V
SCF_ALGORITHM = DIIS_GDM
MAX_SCF_CYCLES = 400
GEOM_OPT_MAX_CYCLES = 150
SCF_CONVERGENCE = 7
THRESH = 12
Solvent_method = SMD
$end
--------------------------------------------------------------

   37    -569.8402539925      6.77e-08  Convergence criterion met
 Total energy in the final basis set =     -569.8305598323
   24    -569.8409148069      7.70e-08  Convergence criterion met
 Total energy in the final basis set =     -569.8311184166
   24    -569.8410630143      6.36e-08  Convergence criterion met
 Total energy in the final basis set =     -569.8312236682
   24    -569.8412560880      4.78e-08  Convergence criterion met
 Total energy in the final basis set =     -569.8313552205
   24    -569.8414103858      4.40e-08  Convergence criterion met
 Total energy in the final basis set =     -569.8314618162
   24    -569.8414705180      4.72e-08  Convergence criterion met
 Total energy in the final basis set =     -569.8315116261
   24    -569.8414852157      3.98e-08  Convergence criterion met
 Total energy in the final basis set =     -569.8315351582
   24    -569.8414876227      6.55e-08  Convergence criterion met
   24    -569.8415122883      7.45e-08  Convergence criterion met
 Total energy in the final basis set =     -569.8317144332
   24    -569.8415221512      6.88e-08  Convergence criterion met
 Total energy in the final basis set =     -569.8317184150
   24    -569.8415293966      6.25e-08  Convergence criterion met
 Total energy in the final basis set =     -569.8317209935
   24    -569.8415332065      6.10e-08  Convergence criterion met
 Total energy in the final basis set =     -569.8317226861
   24    -569.8415344184      6.00e-08  Convergence criterion met
 Total energy in the final basis set =     -569.8317241288
   24    -569.8415339731      5.94e-08  Convergence criterion met
 Total energy in the final basis set =     -569.8317253851

             Standard Nuclear Orientation (Angstroms)
    I     Atom           X                Y                Z
 ----------------------------------------------------------------
    1      C       2.3265989285    -1.2003247668    -0.8080398755
    2      O       1.5855263136    -0.6455998246     0.2411026411
    3      C       3.7775777768    -1.3618100507    -0.3598081852
    4      O       3.9058977228    -1.6120189808     0.9384698621
    5      C       2.7937628928     1.8686914797     0.2817583745
    6      O       3.9595764327     1.6011318364     0.0757606221
    7      H       2.3142253864    -0.5675307671    -1.6928316347
    8      H       0.7650516517    -0.2950855500    -0.1271510992
    9      H       2.4124031010     1.9869035545     1.3023563338
   10      H       2.0893227776     2.0232938564    -0.5444509349
   11      O       1.8321272808    -2.4539279610    -1.2153669942
   12      H       1.8390115753    -3.0516334791    -0.4556891397
   13      O       4.7025176426    -1.3188246093    -1.1375561095
   14      O       4.4672419019     1.0642761123    -2.6299426345
   15      H       4.8447327371    -1.7566367526     1.1411351766
   16      H       4.3211640785     1.2695940024    -1.6755179029
 ----------------------------------------------------------------

   24    -569.8415331068      5.96e-08  Convergence criterion met
 Total energy in the final basis set =     -569.8317263541
 Final energy is   -569.831726354135
 **  OPTIMIZATION CONVERGED  **

                    Orbital Energies (a.u.)
 --------------------------------------------------------------

 Alpha MOs
 -- Occupied --
-19.3924 -19.3875 -19.3593 -19.3578 -19.3566 -19.3430 -10.4955 -10.4646
-10.4432  -1.2612  -1.2108  -1.2015  -1.1689  -1.1465  -1.1265  -0.8563
 -0.7532  -0.7514  -0.6763  -0.6456  -0.6258  -0.6199  -0.6100  -0.5912
 -0.5676  -0.5579  -0.5416  -0.5355  -0.5153  -0.5087  -0.4663  -0.4560
 -0.4515  -0.4419  -0.4188  -0.3980  -0.3861

 Beta MOs
 -- Occupied --
-19.3923 -19.3631 -19.3594 -19.3578 -19.3566 -19.3425 -10.4955 -10.4646
-10.4432  -1.2609  -1.2108  -1.2015  -1.1682  -1.1465  -1.0562  -0.8562
 -0.7531  -0.7513  -0.6762  -0.6454  -0.6238  -0.6176  -0.6089  -0.5866
 -0.5673  -0.5413  -0.5379  -0.5342  -0.5151  -0.4658  -0.4550  -0.4434
 -0.4221  -0.4176  -0.3982  -0.3852

          Ground-State Mulliken Net Atomic Charges

     Atom                 Charge (a.u.)    Spin (a.u.)
  --------------------------------------------------------
      1 C                    -0.041503      -0.002241
      2 O                    -0.366035       0.000045
      3 C                     0.173268       0.012277
      4 O                    -0.254262       0.001835
      5 C                    -0.074393      -0.000425
      6 O                    -0.298740      -0.000595
      7 H                     0.278023      -0.000310
      8 H                     0.342460       0.000006
      9 H                     0.189294      -0.000218
     10 H                     0.217910      -0.000174
     11 O                    -0.398721      -0.000040
     12 H                     0.347581       0.000025
     13 O                    -0.440011       0.002294
     14 O                    -0.405215       0.998366
     15 H                     0.352937      -0.000158
     16 H                     0.377407      -0.010688
  --------------------------------------------------------
  Sum of atomic charges =     0.000000

                    Cartesian Multipole Moments
 -----------------------------------------------------------------
    Charge (ESU x 10^10)
                 0.0000
    Dipole Moment (Debye)
         X      -5.5859      Y       1.3028      Z       5.3112
       Tot       7.8171
    Quadrupole Moments (Debye-Ang)
        XX     -87.3963     XY      -3.6436     YY     -45.1872
        XZ      27.6072     YZ      -4.5198     ZZ     -68.1998

 Total job time:  4053.50s(wall), 57682.29s(cpu)
        *  Thank you very much for using Q-Chem.  Have a nice day.  *
