 Q-Chem 5.4, Q-Chem, Inc., Pleasanton, CA (2021)
 Q-Chem 5.4.1 for Intel X86 EM64T Linux

User input:
--------------------------------------------------------------
$molecule
0 2
C   -0.8449004    0.0274037    0.1053576
C   -2.3014371    0.0690531   -0.2180221
O   -3.0459823    0.0870730    1.0133565
C   -0.0691917   -1.1277357   -0.1454878
C    1.2482796   -1.1817184    0.1753519
C    1.9629601   -0.0400161    0.8220297
O    3.1110330    0.3699297    0.0390053
C    1.0958518    1.1579449    1.0155356
C   -0.2145905    1.1636298    0.6839271
H   -2.5816909   -0.8025010   -0.8114413
H   -2.5359368    0.9688900   -0.7923834
H   -3.9702530    0.2441393    0.7921560
H   -0.5468647   -1.9822553   -0.6096743
H    1.8317466   -2.0719214   -0.0237688
H    2.3435894   -0.3645159    1.8006061
H    3.7655398   -0.3359263    0.0911604
H    1.5648634    2.0343052    1.4438898
H   -0.8078870    2.0550135    0.8502014
O    0.6479997   -1.4694703    1.9205727
O   -0.4067055   -0.8006822    2.0629749
$end

$rem
BASIS = 6-311++G(2df,2p)
GUI = 2
JOB_TYPE = Frequency
METHOD = wB97M-V
SCF_ALGORITHM = DIIS_GDM
MAX_SCF_CYCLES = 400
SCF_CONVERGENCE = 6
THRESH = 11
solvent_method = SMD
$end

--------------------------------------------------------------

   24    -572.8169636986      6.52e-07  Convergence criterion met
 Total energy in the final basis set =     -572.8117953408
   19    -572.8170065513      6.45e-07  Convergence criterion met
 Total energy in the final basis set =     -572.8118383453
   19    -572.8169186181      7.67e-07  Convergence criterion met
 Total energy in the final basis set =     -572.8117501071
   19    -572.8168609251      7.25e-07  Convergence criterion met
 Total energy in the final basis set =     -572.8116927624
   19    -572.8170644004      5.54e-07  Convergence criterion met
 Total energy in the final basis set =     -572.8118958465
   19    -572.8169397399      7.49e-07  Convergence criterion met
 Total energy in the final basis set =     -572.8117705616
   19    -572.8169867769      6.86e-07  Convergence criterion met
 Total energy in the final basis set =     -572.8118192397
   19    -572.8169494827      6.97e-07  Convergence criterion met
 Frequency:      -362.50                  53.09                  96.06
 Force Cnst:      0.6969                 0.0080                 0.0296
 Red. Mass:       9.0010                 4.8175                 5.4494
 IR Intens:       77.102                  3.636                  7.678
 Frequency:       107.97                 206.16                 229.97
 Force Cnst:      0.0433                 0.0276                 0.2138
 Red. Mass:       6.3011                 1.1019                 6.8614
 IR Intens:        6.798                222.345                 13.186
 Frequency:       265.70                 282.93                 325.09
 Force Cnst:      0.1460                 0.1851                 0.2363
 Red. Mass:       3.5096                 3.9246                 3.7942
 IR Intens:        5.461                 26.703                 41.646
 Frequency:       327.60                 354.27                 426.53
 Force Cnst:      0.0789                 0.2260                 0.6687
 Red. Mass:       1.2474                 3.0563                 6.2384
 IR Intens:      206.646                  4.219                 21.550
 Frequency:       451.22                 510.70                 545.93
 Force Cnst:      0.4585                 0.6922                 0.5779
 Red. Mass:       3.8222                 4.5044                 3.2908
 IR Intens:        6.404                 28.264                 24.855
 Frequency:       616.54                 642.10                 678.55
 Force Cnst:      1.1339                 1.2130                 0.9828
 Red. Mass:       5.0631                 4.9936                 3.6228
 IR Intens:       55.295                 12.701                 52.584
 Frequency:       777.32                 801.93                 855.68
 Force Cnst:      0.8549                 1.0103                 0.7710
 Red. Mass:       2.4014                 2.6663                 1.7872
 IR Intens:       13.259                 84.024                 60.264
 Frequency:       885.41                 976.01                 986.92
 Force Cnst:      1.2437                 1.7002                 0.9271
 Red. Mass:       2.6925                 3.0293                 1.6155
 IR Intens:      103.202                 39.056                 43.143
 Frequency:      1010.05                1017.84                1023.88
 Force Cnst:      0.9007                 0.8986                 2.8956
 Red. Mass:       1.4985                 1.4721                 4.6880
 IR Intens:       32.949                 36.221                100.815
 Frequency:      1035.88                1086.34                1157.37
 Force Cnst:      1.8102                 1.4934                 0.8607
 Red. Mass:       2.8632                 2.1477                 1.0905
 IR Intens:      169.085                 87.120                  4.614
 Frequency:      1187.57                1207.69                1219.36
 Force Cnst:      0.9571                 1.0837                 0.9677
 Red. Mass:       1.1518                 1.2611                 1.1047
 IR Intens:       13.839                113.044                 69.371
 Frequency:      1248.09                1262.07                1311.41
 Force Cnst:      1.2253                 1.3565                10.7249
 Red. Mass:       1.3350                 1.4455                10.5845
 IR Intens:        7.088                 24.745                377.744
 Frequency:      1345.56                1404.46                1421.05
 Force Cnst:      1.3895                 1.5272                 2.0720
 Red. Mass:       1.3026                 1.3141                 1.7415
 IR Intens:        6.339                  2.660                 16.376
 Frequency:      1445.72                1485.42                1499.61
 Force Cnst:      1.7658                 2.4176                 1.6205
 Red. Mass:       1.4339                 1.8596                 1.2230
 IR Intens:       75.968                 10.079                  4.231
 Frequency:      1500.22                1576.60                1685.66
 Force Cnst:      5.0421                 9.1256                10.9602
 Red. Mass:       3.8023                 6.2312                 6.5468
 IR Intens:       16.053                 52.811                 41.867
 Frequency:      2973.47                3044.88                3091.17
 Force Cnst:      5.6324                 5.7828                 6.2276
 Red. Mass:       1.0812                 1.0586                 1.1062
 IR Intens:       10.938                 54.115                 41.000
 Frequency:      3178.52                3179.43                3200.78
 Force Cnst:      6.4767                 6.4848                 6.6104
 Red. Mass:       1.0881                 1.0888                 1.0951
 IR Intens:        8.811                 10.479                 15.256
 Frequency:      3202.89                3821.42                3829.36
 Force Cnst:      6.6296                 9.1773                 9.2161
 Red. Mass:       1.0969                 1.0666                 1.0667
 IR Intens:        3.601                131.307                129.815

 STANDARD THERMODYNAMIC QUANTITIES AT   298.15 K  AND     1.00 ATM

   This Molecule has  1 Imaginary Frequencies
   Zero point vibrational energy:       97.293 kcal/mol

   Atom    1 Element C  Has Mass   12.00000
   Atom    2 Element C  Has Mass   12.00000
   Atom    3 Element O  Has Mass   15.99491
   Atom    4 Element C  Has Mass   12.00000
   Atom    5 Element C  Has Mass   12.00000
   Atom    6 Element C  Has Mass   12.00000
   Atom    7 Element O  Has Mass   15.99491
   Atom    8 Element C  Has Mass   12.00000
   Atom    9 Element C  Has Mass   12.00000
   Atom   10 Element H  Has Mass    1.00783
   Atom   11 Element H  Has Mass    1.00783
   Atom   12 Element H  Has Mass    1.00783
   Atom   13 Element H  Has Mass    1.00783
   Atom   14 Element H  Has Mass    1.00783
   Atom   15 Element H  Has Mass    1.00783
   Atom   16 Element H  Has Mass    1.00783
   Atom   17 Element H  Has Mass    1.00783
   Atom   18 Element H  Has Mass    1.00783
   Atom   19 Element O  Has Mass   15.99491
   Atom   20 Element O  Has Mass   15.99491
   Molecular Mass:   157.050110 amu
   Principal axes and moments of inertia in amu*Bohr^2:
                             1           2           3
    Eigenvalues --      798.25907  2162.70879  2343.56542
          X               0.99984     0.00607     0.01686
          Y              -0.01355     0.87177     0.48973
          Z              -0.01172    -0.48988     0.87171
   Rotational Symmetry Number is   1
   The Molecule is an Asymmetric Top
   Translational Enthalpy:        0.889 kcal/mol
   Rotational Enthalpy:           0.889 kcal/mol
   Vibrational Enthalpy:        101.965 kcal/mol
   gas constant (RT):             0.592 kcal/mol
   Translational Entropy:        41.063  cal/mol.K
   Rotational Entropy:           29.782  cal/mol.K
   Vibrational Entropy:          28.061  cal/mol.K

   Total Enthalpy:              104.335 kcal/mol
   Total Entropy:                98.907  cal/mol.K
 Total job time:  31590.29s(wall), 454192.63s(cpu)
        *  Thank you very much for using Q-Chem.  Have a nice day.  *
 Q-Chem 5.4, Q-Chem, Inc., Pleasanton, CA (2021)
 Q-Chem 5.4.1 for Intel X86 EM64T Linux

User input:
--------------------------------------------------------------

$rem
JOBTYPE = ts
SCF_GUESS = read
GEOM_OPT_HESSIAN = read
MAX_SCF_CYCLES = 350
GEOM_OPT_DMAX = 60
GEOM_OPT_MAX_CYCLES = 250
METHOD = wB97M-v
BASIS = 6-311++G(2df,2p)
SCF_CONVERGENCE = 7
THRESH = 12
SCF_ALGORITHM = DIIS_GDM
solvent_method = SMD
$end

$molecule
read
$end
--------------------------------------------------------------

   24    -572.8666968876      4.18e-08  Convergence criterion met
 Total energy in the final basis set =     -572.8614658146
   24    -572.8668026249      4.20e-08  Convergence criterion met
 Total energy in the final basis set =     -572.8615718731
   24    -572.8668801118      4.17e-08  Convergence criterion met
 Total energy in the final basis set =     -572.8616497315
   24    -572.8669301825      4.09e-08  Convergence criterion met
 Total energy in the final basis set =     -572.8617001754
   24    -572.8669548277      4.51e-08  Convergence criterion met
 Total energy in the final basis set =     -572.8617251324
   24    -572.8669579581      5.13e-08  Convergence criterion met
 Total energy in the final basis set =     -572.8617282314

             Standard Nuclear Orientation (Angstroms)
    I     Atom           X                Y                Z
 ----------------------------------------------------------------
    1      C      -0.8176287950    -0.0318532466     0.1274053246
    2      C      -2.2618398633     0.0358204915    -0.2568173358
    3      O      -3.0323661903     0.3843551188     0.8939645904
    4      C      -0.0307795596    -1.0993362852    -0.2402310390
    5      C       1.2547729422    -1.1820974699     0.2577981423
    6      C       1.9892075527     0.0186812503     0.7784207592
    7      O       2.9560192781     0.4725481903    -0.1900894608
    8      C       1.0780591982     1.1636356092     1.0728014994
    9      C      -0.2273490685     1.1161960806     0.7896136767
   10      H      -2.5874308633    -0.9216841736    -0.6657872209
   11      H      -2.3860583183     0.7991216327    -1.0312157036
   12      H      -3.8928036425     0.6914651626     0.5911420185
   13      H      -0.4744124161    -1.9453569959    -0.7482037122
   14      H       1.8568763473    -2.0621529627     0.0716662556
   15      H       2.5244599189    -0.2616821468     1.6900019800
   16      H       3.6764820600    -0.1679408504    -0.2108645685
   17      H       1.5252904743     2.0465770586     1.5106287630
   18      H      -0.8710785605     1.9541558467     1.0223413302
   19      O       0.5723620108    -1.6753253446     2.3036027165
   20      O      -0.6053590051    -1.3344873654     2.4491692842
 ----------------------------------------------------------------

   24    -572.8669578744      5.46e-08  Convergence criterion met
 Total energy in the final basis set =     -572.8617282415
 Final energy is   -572.861728241488
 **  OPTIMIZATION CONVERGED  **

                    Orbital Energies (a.u.)
 --------------------------------------------------------------

 Alpha MOs
 -- Occupied --
-19.4480 -19.4328 -19.3425 -19.3399 -10.4053 -10.3910 -10.3757 -10.3729
-10.3510 -10.3500 -10.3431  -1.3678  -1.1589  -1.1574  -0.9853  -0.9322
 -0.8896  -0.8763  -0.8024  -0.7299  -0.7120  -0.6445  -0.6350  -0.6286
 -0.6247  -0.6139  -0.6113  -0.5840  -0.5747  -0.5364  -0.5318  -0.5235
 -0.4918  -0.4818  -0.4508  -0.4327  -0.4279  -0.3975  -0.3868  -0.3783
 -0.3743  -0.3412

 Beta MOs
 -- Occupied --
-19.4243 -19.4098 -19.3436 -19.3402 -10.4048 -10.3908 -10.3796 -10.3770
-10.3529 -10.3489 -10.3413  -1.3238  -1.1612  -1.1581  -0.9888  -0.8974
 -0.8890  -0.8556  -0.8028  -0.7327  -0.7160  -0.6384  -0.6343  -0.6276
 -0.5886  -0.5862  -0.5784  -0.5659  -0.5366  -0.5330  -0.5310  -0.5228
 -0.4928  -0.4826  -0.4535  -0.4338  -0.4311  -0.3996  -0.3881  -0.3591
 -0.2831

          Ground-State Mulliken Net Atomic Charges

     Atom                 Charge (a.u.)    Spin (a.u.)
  --------------------------------------------------------
      1 C                     1.212399      -0.251496
      2 C                    -0.561586      -0.003444
      3 O                    -0.406281      -0.000750
      4 C                    -0.856764       0.084908
      5 C                     0.012535      -0.260910
      6 C                    -0.817218       0.000299
      7 O                    -0.415642      -0.016757
      8 C                    -0.056541      -0.159777
      9 C                    -0.534381       0.090663
     10 H                     0.231391      -0.001159
     11 H                     0.187784      -0.013066
     12 H                     0.327644      -0.003046
     13 H                     0.274516      -0.002711
     14 H                     0.355768       0.009402
     15 H                     0.264112      -0.014818
     16 H                     0.324225      -0.001586
     17 H                     0.310835       0.002469
     18 H                     0.311251      -0.000202
     19 O                    -0.070493       0.767826
     20 O                    -0.093555       0.774155
  --------------------------------------------------------
  Sum of atomic charges =    -0.000000

                    Cartesian Multipole Moments
 -----------------------------------------------------------------
    Charge (ESU x 10^10)
                -0.0000
    Dipole Moment (Debye)
         X       0.1558      Y      -0.2892      Z      -3.6507
       Tot       3.6655
    Quadrupole Moments (Debye-Ang)
        XX     -46.9344     XY     -10.2416     YY     -62.6242
        XZ      11.3980     YZ       7.5048     ZZ     -75.7746

 Total job time:  11357.81s(wall), 163420.27s(cpu)
        *  Thank you very much for using Q-Chem.  Have a nice day.  *
