 Q-Chem 5.4, Q-Chem, Inc., Pleasanton, CA (2021)
 Q-Chem 5.4.1 for Intel X86 EM64T Linux

User input:
--------------------------------------------------------------
$molecule
0 2
C    3.4481061    3.1520461    2.6452835
C    2.3882569    2.9061656    3.7135599
O    2.8519395    1.8504447    4.5270770
O    2.2483489    4.0959508    4.4446133
H    4.5054328    3.2632218    3.2374105
H    1.4477142    2.6224870    3.2345610
H    2.1000926    1.4282885    4.9576371
H    1.5122149    3.9902324    5.0579931
O    5.7112734    3.2148066    3.8063041
O    6.4196429    2.2537304    3.1297963
C    6.2908315    0.9983808    3.7946792
O    5.0380283    0.4099030    3.5866061
H    7.0334398    0.3727748    3.3081479
H    6.5060114    1.1356742    4.8529162
H    4.3563326    0.8804687    4.1008536
O    3.5911268    2.1000516    1.7453293
O    3.1583743    4.3162427    1.9654639
H    4.0769199    1.3734628    2.1730819
H    3.7336083    4.3643270    1.1904248
$end

$rem
BASIS = 6-311++G(2df,2p)
GUI = 2
JOB_TYPE = Frequency
METHOD = wB97M-V
SOLVENT_METHOD = SMD
SCF_ALGORITHM = DIIS_GDM
MAX_SCF_CYCLES = 400
SCF_CONVERGENCE = 7
THRESH = 12
$end

--------------------------------------------------------------

   22    -646.2080396685      3.14e-08  Convergence criterion met
 Total energy in the final basis set =     -646.2017162349
   19    -646.2080450724      3.71e-08  Convergence criterion met
 Total energy in the final basis set =     -646.2017224879
   19    -646.2080329373      3.57e-08  Convergence criterion met
 Total energy in the final basis set =     -646.2017086636
   19    -646.2080407989      3.61e-08  Convergence criterion met
 Total energy in the final basis set =     -646.2017154441
   19    -646.2080367742      3.80e-08  Convergence criterion met
 Total energy in the final basis set =     -646.2017151870
   19    -646.2080298693      3.64e-08  Convergence criterion met
 Total energy in the final basis set =     -646.2017174332
   19    -646.2080478205      3.57e-08  Convergence criterion met
 Total energy in the final basis set =     -646.2017133390
   19    -646.2080368940      3.67e-08  Convergence criterion met
 Total energy in the final basis set =     -646.2017159505
   19    -646.2080404429      3.68e-08  Convergence criterion met
 Total energy in the final basis set =     -646.2017168296
   19    -646.2080382147      3.62e-08  Convergence criterion met
 Total energy in the final basis set =     -646.2017149604
   19    -646.2080404298      3.67e-08  Convergence criterion met
 Total energy in the final basis set =     -646.2017164556
   19    -646.2080387578      3.63e-08  Convergence criterion met
 Total energy in the final basis set =     -646.2017158642
   19    -646.2080392086      3.67e-08  Convergence criterion met
 Total energy in the final basis set =     -646.2017164991
   19    -646.2080389101      3.63e-08  Convergence criterion met
 Total energy in the final basis set =     -646.2017147523
 Frequency:     -1635.98                  55.12                  69.32
 Force Cnst:      2.0427                 0.0139                 0.0191
 Red. Mass:       1.2954                 7.7589                 6.7465
 IR Intens:    12868.214                  1.682                 11.702
 Frequency:        95.39                 131.24                 152.31
 Force Cnst:      0.0200                 0.0734                 0.1102
 Red. Mass:       3.7381                 7.2276                 8.0629
 IR Intens:        5.084                  8.405                 10.106
 Frequency:       194.93                 216.23                 250.34
 Force Cnst:      0.0908                 0.1372                 0.1111
 Red. Mass:       4.0552                 4.9807                 3.0095
 IR Intens:        3.329                 37.422                 55.460
 Frequency:       271.50                 300.93                 314.36
 Force Cnst:      0.0579                 0.0660                 0.0639
 Red. Mass:       1.3322                 1.2361                 1.0973
 IR Intens:      116.140                326.043                103.750
 Frequency:       387.57                 399.74                 445.82
 Force Cnst:      0.5183                 0.3428                 0.4133
 Red. Mass:       5.8563                 3.6412                 3.5293
 IR Intens:       12.103                 20.890                 82.064
 Frequency:       470.51                 496.57                 531.60
 Force Cnst:      0.1778                 0.7521                 0.5117
 Red. Mass:       1.3630                 5.1767                 3.0731
 IR Intens:      213.529                 43.819                 34.556
 Frequency:       598.35                 613.09                 666.37
 Force Cnst:      1.8155                 1.3629                 1.5675
 Red. Mass:       8.6067                 6.1541                 5.9916
 IR Intens:      150.793                 54.873                 36.298
 Frequency:       775.94                 934.54                 991.58
 Force Cnst:      0.3893                 2.2914                 1.4175
 Red. Mass:       1.0974                 4.4529                 2.4470
 IR Intens:      243.379                150.915                 51.489
 Frequency:      1089.02                1099.48                1140.78
 Force Cnst:      1.0578                 2.3596                 1.3895
 Red. Mass:       1.5139                 3.3130                 1.8122
 IR Intens:      118.261                376.893                204.049
 Frequency:      1162.84                1183.83                1189.61
 Force Cnst:      3.3189                 2.5837                 3.5741
 Red. Mass:       4.1658                 3.1290                 4.2865
 IR Intens:       13.217                166.152                284.430
 Frequency:      1205.17                1239.31                1251.60
 Force Cnst:      1.2410                 1.1849                 1.3975
 Red. Mass:       1.4502                 1.3094                 1.5142
 IR Intens:      485.258                 30.335                 89.956
 Frequency:      1257.95                1301.34                1350.15
 Force Cnst:      2.8555                 1.1738                 1.4647
 Red. Mass:       3.0627                 1.1764                 1.3637
 IR Intens:      218.432                 22.530                181.636
 Frequency:      1400.81                1404.90                1428.90
 Force Cnst:      1.4554                 1.5744                 1.4059
 Red. Mass:       1.2588                 1.3539                 1.1687
 IR Intens:       53.035                 37.879                 30.325
 Frequency:      1441.13                1472.33                1482.65
 Force Cnst:      1.5288                 1.4645                 1.4623
 Red. Mass:       1.2494                 1.1467                 1.1290
 IR Intens:       48.065                 26.380                  7.232
 Frequency:      1516.46                3066.73                3095.73
 Force Cnst:      2.6055                 6.0222                 5.9741
 Red. Mass:       1.9230                 1.0868                 1.0580
 IR Intens:       51.056                 64.330                 71.402
 Frequency:      3175.74                3574.73                3634.23
 Force Cnst:      6.6095                 8.0537                 8.3048
 Red. Mass:       1.1123                 1.0697                 1.0672
 IR Intens:       16.249                515.196                578.438
 Frequency:      3794.73                3824.70                3827.62
 Force Cnst:      9.0424                 9.1938                 9.2103
 Red. Mass:       1.0658                 1.0667                 1.0670
 IR Intens:      182.106                145.462                194.066

 STANDARD THERMODYNAMIC QUANTITIES AT   298.15 K  AND     1.00 ATM

   This Molecule has  1 Imaginary Frequencies
   Zero point vibrational energy:       88.599 kcal/mol

   Atom    1 Element C  Has Mass   12.00000
   Atom    2 Element C  Has Mass   12.00000
   Atom    3 Element O  Has Mass   15.99491
   Atom    4 Element O  Has Mass   15.99491
   Atom    5 Element H  Has Mass    1.00783
   Atom    6 Element H  Has Mass    1.00783
   Atom    7 Element H  Has Mass    1.00783
   Atom    8 Element H  Has Mass    1.00783
   Atom    9 Element O  Has Mass   15.99491
   Atom   10 Element O  Has Mass   15.99491
   Atom   11 Element C  Has Mass   12.00000
   Atom   12 Element O  Has Mass   15.99491
   Atom   13 Element H  Has Mass    1.00783
   Atom   14 Element H  Has Mass    1.00783
   Atom   15 Element H  Has Mass    1.00783
   Atom   16 Element O  Has Mass   15.99491
   Atom   17 Element O  Has Mass   15.99491
   Atom   18 Element H  Has Mass    1.00783
   Atom   19 Element H  Has Mass    1.00783
   Molecular Mass:   157.034840 amu
   Principal axes and moments of inertia in amu*Bohr^2:
                             1           2           3
    Eigenvalues --     1011.41885  2045.99461  2275.52464
          X               0.84147    -0.39857     0.36479
          Y              -0.53921    -0.57642     0.61400
          Z               0.03445     0.71336     0.69995
   Rotational Symmetry Number is   1
   The Molecule is an Asymmetric Top
   Translational Enthalpy:        0.889 kcal/mol
   Rotational Enthalpy:           0.889 kcal/mol
   Vibrational Enthalpy:         94.234 kcal/mol
   gas constant (RT):             0.592 kcal/mol
   Translational Entropy:        41.063  cal/mol.K
   Rotational Entropy:           29.933  cal/mol.K
   Vibrational Entropy:          35.204  cal/mol.K

   Total Enthalpy:               96.604 kcal/mol
   Total Entropy:               106.200  cal/mol.K
 Total job time:  15984.36s(wall), 390005.02s(cpu)
        *  Thank you very much for using Q-Chem.  Have a nice day.  *
 Q-Chem 5.4, Q-Chem, Inc., Pleasanton, CA (2021)
 Q-Chem 5.4.1 for Intel X86 EM64T Linux

User input:
--------------------------------------------------------------

$molecule
read
$end

$rem
JOBTYPE            rpath
SCF_GUESS          read
RPATH_MAX_CYCLES   30
BASIS = 6-311++G(2df,2p)
METHOD = wB97M-V
SOLVENT_METHOD = SMD
SCF_ALGORITHM = DIIS_GDM
SCF_CONVERGENCE = 7
THRESH = 12
$end
--------------------------------------------------------------

             Standard Nuclear Orientation (Angstroms)
    I     Atom           X                Y                Z
 ----------------------------------------------------------------
    1      C       3.4481061000     3.1520461000     2.6452835000
    2      C       2.3882569000     2.9061656000     3.7135599000
    3      O       2.8519395000     1.8504447000     4.5270770000
    4      O       2.2483489000     4.0959508000     4.4446133000
    5      H       4.5054328000     3.2632218000     3.2374105000
    6      H       1.4477142000     2.6224870000     3.2345610000
    7      H       2.1000926000     1.4282885000     4.9576371000
    8      H       1.5122149000     3.9902324000     5.0579931000
    9      O       5.7112734000     3.2148066000     3.8063041000
   10      O       6.4196429000     2.2537304000     3.1297963000
   11      C       6.2908315000     0.9983808000     3.7946792000
   12      O       5.0380283000     0.4099030000     3.5866061000
   13      H       7.0334398000     0.3727748000     3.3081479000
   14      H       6.5060114000     1.1356742000     4.8529162000
   15      H       4.3563326000     0.8804687000     4.1008536000
   16      O       3.5911268000     2.1000516000     1.7453293000
   17      O       3.1583743000     4.3162427000     1.9654639000
   18      H       4.0769199000     1.3734628000     2.1730819000
   19      H       3.7336083000     4.3643270000     1.1904248000
 ----------------------------------------------------------------

   19    -646.2080396692      3.66e-08  Convergence criterion met
 Total energy in the final basis set =     -646.2017162355

                    Orbital Energies (a.u.)
 --------------------------------------------------------------

 Alpha MOs
 -- Occupied --
-19.4248 -19.4116 -19.3634 -19.3584 -19.3579 -19.3512 -19.3496 -10.4625
-10.4557 -10.4418  -1.2990  -1.2312  -1.2028  -1.1747  -1.1544  -1.1402
 -1.0195  -0.8666  -0.7930  -0.7443  -0.7031  -0.6817  -0.6668  -0.6441
 -0.6359  -0.6179  -0.6045  -0.5988  -0.5612  -0.5269  -0.5217  -0.5165
 -0.4975  -0.4881  -0.4668  -0.4450  -0.4376  -0.4286  -0.4166  -0.4141
 -0.4050  -0.3349

 Beta MOs
 -- Occupied --
-19.4211 -19.3955 -19.3617 -19.3584 -19.3562 -19.3510 -19.3496 -10.4571
-10.4553 -10.4420  -1.2831  -1.2279  -1.2014  -1.1725  -1.1517  -1.1390
 -0.9956  -0.8613  -0.7883  -0.7378  -0.6916  -0.6794  -0.6612  -0.6382
 -0.6327  -0.6081  -0.5996  -0.5904  -0.5420  -0.5198  -0.5163  -0.5033
 -0.4898  -0.4827  -0.4583  -0.4358  -0.4314  -0.4271  -0.4137  -0.3937
 -0.3698

          Ground-State Mulliken Net Atomic Charges

     Atom                 Charge (a.u.)    Spin (a.u.)
  --------------------------------------------------------
      1 C                    -0.446713       0.265951
      2 C                     0.061524      -0.006845
      3 O                    -0.457438       0.000245
      4 O                    -0.413387       0.001142
      5 H                     0.539675       0.010589
      6 H                     0.278118       0.011814
      7 H                     0.366843      -0.000180
      8 H                     0.338875      -0.000726
      9 O                    -0.314692       0.499484
     10 O                    -0.073449       0.116072
     11 C                    -0.186949      -0.000558
     12 O                    -0.460340       0.001054
     13 H                     0.204720      -0.000090
     14 H                     0.238205       0.002182
     15 H                     0.381549       0.000294
     16 O                    -0.371675       0.048008
     17 O                    -0.373213       0.052259
     18 H                     0.358069      -0.000013
     19 H                     0.330278      -0.000682
  --------------------------------------------------------
  Sum of atomic charges =    -0.000000

                    Cartesian Multipole Moments
 -----------------------------------------------------------------
    Charge (ESU x 10^10)
                -0.0000
    Dipole Moment (Debye)
         X      -3.2464      Y      -3.5810      Z       2.7399
       Tot       5.5560
    Quadrupole Moments (Debye-Ang)
        XX     -72.8850     XY     -23.6368     YY     -84.2218
        XZ      -8.7019     YZ     -11.1621     ZZ     -36.9188
