 Q-Chem 5.4, Q-Chem, Inc., Pleasanton, CA (2021)
 Q-Chem 5.4.1 for Intel X86 EM64T Linux

User input:
--------------------------------------------------------------
$molecule
0 2
C    3.4481061    3.1520461    2.6452835
C    2.3882569    2.9061656    3.7135599
O    2.8519395    1.8504447    4.5270770
O    2.2483489    4.0959508    4.4446133
H    4.5054328    3.2632218    3.2374105
H    1.4477142    2.6224870    3.2345610
H    2.1000926    1.4282885    4.9576371
H    1.5122149    3.9902324    5.0579931
O    5.7112734    3.2148066    3.8063041
O    6.4196429    2.2537304    3.1297963
C    6.2908315    0.9983808    3.7946792
O    5.0380283    0.4099030    3.5866061
H    7.0334398    0.3727748    3.3081479
H    6.5060114    1.1356742    4.8529162
H    4.3563326    0.8804687    4.1008536
O    3.5911268    2.1000516    1.7453293
O    3.1583743    4.3162427    1.9654639
H    4.0769199    1.3734628    2.1730819
H    3.7336083    4.3643270    1.1904248
$end

$rem
BASIS = 6-311++G(2df,2p)
GUI = 2
JOB_TYPE = Frequency
METHOD = wB97M-V
SCF_ALGORITHM = DIIS_GDM
MAX_SCF_CYCLES = 400
SCF_CONVERGENCE = 6
THRESH = 11
solvent_method = SMD
$end

--------------------------------------------------------------

   18    -646.2080396781      9.28e-07  Convergence criterion met
 Total energy in the final basis set =     -646.2017162444
   16    -646.2080450810      6.47e-07  Convergence criterion met
 Total energy in the final basis set =     -646.2017224965
   16    -646.2080329459      6.54e-07  Convergence criterion met
 Total energy in the final basis set =     -646.2017086723
   16    -646.2080408076      6.46e-07  Convergence criterion met
 Total energy in the final basis set =     -646.2017154528
   16    -646.2080367828      6.50e-07  Convergence criterion met
 Total energy in the final basis set =     -646.2017151956
   16    -646.2080298779      6.54e-07  Convergence criterion met
 Total energy in the final basis set =     -646.2017174418
   16    -646.2080478292      6.35e-07  Convergence criterion met
 Total energy in the final basis set =     -646.2017133477
   16    -646.2080369026      6.50e-07  Convergence criterion met
 Frequency:     -1635.93                  55.12                  69.32
 Force Cnst:      2.0426                 0.0139                 0.0191
 Red. Mass:       1.2954                 7.7588                 6.7465
 IR Intens:    12867.262                  1.682                 11.702
 Frequency:        95.38                 131.24                 152.31
 Force Cnst:      0.0200                 0.0734                 0.1102
 Red. Mass:       3.7380                 7.2277                 8.0628
 IR Intens:        5.084                  8.407                 10.102
 Frequency:       194.93                 216.23                 250.35
 Force Cnst:      0.0908                 0.1372                 0.1111
 Red. Mass:       4.0550                 4.9806                 3.0092
 IR Intens:        3.329                 37.425                 55.466
 Frequency:       271.50                 300.92                 314.36
 Force Cnst:      0.0579                 0.0659                 0.0639
 Red. Mass:       1.3323                 1.2361                 1.0973
 IR Intens:      116.131                326.022                103.766
 Frequency:       387.57                 399.74                 445.82
 Force Cnst:      0.5183                 0.3428                 0.4133
 Red. Mass:       5.8560                 3.6413                 3.5294
 IR Intens:       12.105                 20.893                 82.057
 Frequency:       470.51                 496.57                 531.60
 Force Cnst:      0.1778                 0.7521                 0.5117
 Red. Mass:       1.3630                 5.1770                 3.0731
 IR Intens:      213.536                 43.818                 34.556
 Frequency:       598.35                 613.09                 666.37
 Force Cnst:      1.8155                 1.3629                 1.5675
 Red. Mass:       8.6066                 6.1541                 5.9915
 IR Intens:      150.795                 54.876                 36.302
 Frequency:       775.93                 934.54                 991.58
 Force Cnst:      0.3893                 2.2914                 1.4175
 Red. Mass:       1.0974                 4.4530                 2.4470
 IR Intens:      243.382                150.919                 51.486
 Frequency:      1089.02                1099.48                1140.78
 Force Cnst:      1.0578                 2.3597                 1.3895
 Red. Mass:       1.5139                 3.3130                 1.8122
 IR Intens:      118.256                376.890                204.055
 Frequency:      1162.84                1183.83                1189.61
 Force Cnst:      3.3188                 2.5838                 3.5739
 Red. Mass:       4.1657                 3.1291                 4.2863
 IR Intens:       13.215                166.173                284.410
 Frequency:      1205.17                1239.31                1251.60
 Force Cnst:      1.2410                 1.1849                 1.3975
 Red. Mass:       1.4501                 1.3094                 1.5142
 IR Intens:      485.251                 30.340                 89.957
 Frequency:      1257.95                1301.34                1350.15
 Force Cnst:      2.8555                 1.1738                 1.4647
 Red. Mass:       3.0627                 1.1764                 1.3638
 IR Intens:      218.431                 22.530                181.627
 Frequency:      1400.81                1404.90                1428.90
 Force Cnst:      1.4554                 1.5744                 1.4059
 Red. Mass:       1.2588                 1.3538                 1.1687
 IR Intens:       53.038                 37.878                 30.325
 Frequency:      1441.13                1472.33                1482.65
 Force Cnst:      1.5288                 1.4645                 1.4623
 Red. Mass:       1.2494                 1.1467                 1.1290
 IR Intens:       48.066                 26.375                  7.232
 Frequency:      1516.46                3066.73                3095.73
 Force Cnst:      2.6055                 6.0222                 5.9741
 Red. Mass:       1.9230                 1.0868                 1.0580
 IR Intens:       51.062                 64.316                 71.406
 Frequency:      3175.74                3574.73                3634.23
 Force Cnst:      6.6095                 8.0537                 8.3048
 Red. Mass:       1.1123                 1.0697                 1.0672
 IR Intens:       16.248                515.201                578.448
 Frequency:      3794.73                3824.70                3827.62
 Force Cnst:      9.0424                 9.1938                 9.2103
 Red. Mass:       1.0658                 1.0667                 1.0670
 IR Intens:      182.106                145.462                194.059

 STANDARD THERMODYNAMIC QUANTITIES AT   298.15 K  AND     1.00 ATM

   This Molecule has  1 Imaginary Frequencies
   Zero point vibrational energy:       88.599 kcal/mol

   Atom    1 Element C  Has Mass   12.00000
   Atom    2 Element C  Has Mass   12.00000
   Atom    3 Element O  Has Mass   15.99491
   Atom    4 Element O  Has Mass   15.99491
   Atom    5 Element H  Has Mass    1.00783
   Atom    6 Element H  Has Mass    1.00783
   Atom    7 Element H  Has Mass    1.00783
   Atom    8 Element H  Has Mass    1.00783
   Atom    9 Element O  Has Mass   15.99491
   Atom   10 Element O  Has Mass   15.99491
   Atom   11 Element C  Has Mass   12.00000
   Atom   12 Element O  Has Mass   15.99491
   Atom   13 Element H  Has Mass    1.00783
   Atom   14 Element H  Has Mass    1.00783
   Atom   15 Element H  Has Mass    1.00783
   Atom   16 Element O  Has Mass   15.99491
   Atom   17 Element O  Has Mass   15.99491
   Atom   18 Element H  Has Mass    1.00783
   Atom   19 Element H  Has Mass    1.00783
   Molecular Mass:   157.034840 amu
   Principal axes and moments of inertia in amu*Bohr^2:
                             1           2           3
    Eigenvalues --     1011.41885  2045.99461  2275.52464
          X               0.84147    -0.39857     0.36479
          Y              -0.53921    -0.57642     0.61400
          Z               0.03445     0.71336     0.69995
   Rotational Symmetry Number is   1
   The Molecule is an Asymmetric Top
   Translational Enthalpy:        0.889 kcal/mol
   Rotational Enthalpy:           0.889 kcal/mol
   Vibrational Enthalpy:         94.234 kcal/mol
   gas constant (RT):             0.592 kcal/mol
   Translational Entropy:        41.063  cal/mol.K
   Rotational Entropy:           29.933  cal/mol.K
   Vibrational Entropy:          35.204  cal/mol.K

   Total Enthalpy:               96.604 kcal/mol
   Total Entropy:               106.200  cal/mol.K
 Total job time:  13441.97s(wall), 323486.96s(cpu)
        *  Thank you very much for using Q-Chem.  Have a nice day.  *
 Q-Chem 5.4, Q-Chem, Inc., Pleasanton, CA (2021)
 Q-Chem 5.4.1 for Intel X86 EM64T Linux

User input:
--------------------------------------------------------------

$rem
JOBTYPE = ts
SCF_GUESS = read
GEOM_OPT_HESSIAN = read
MAX_SCF_CYCLES = 350
GEOM_OPT_DMAX = 60
GEOM_OPT_MAX_CYCLES = 250
METHOD = wB97M-v
BASIS = 6-311++G(2df,2p)
SCF_CONVERGENCE = 7
THRESH = 12
SCF_ALGORITHM = DIIS_GDM
solvent_method = SMD
$end

$molecule
read
$end
--------------------------------------------------------------

   18    -646.2084283044      6.41e-08  Convergence criterion met
 Total energy in the final basis set =     -646.2019309351
   18    -646.2084827968      6.04e-08  Convergence criterion met
 Total energy in the final basis set =     -646.2019679428
   18    -646.2085304662      5.85e-08  Convergence criterion met
 Total energy in the final basis set =     -646.2019990539
   18    -646.2085708624      5.41e-08  Convergence criterion met
 Total energy in the final basis set =     -646.2020228225
   18    -646.2086035773      4.97e-08  Convergence criterion met
 Total energy in the final basis set =     -646.2020384032
   18    -646.2086287364      4.51e-08  Convergence criterion met
 Total energy in the final basis set =     -646.2020456558

             Standard Nuclear Orientation (Angstroms)
    I     Atom           X                Y                Z
 ----------------------------------------------------------------
    1      C       3.4248596666     3.1243877641     2.6428243114
    2      C       2.3767612218     2.9123836768     3.7310332121
    3      O       2.7424873464     1.7568699044     4.4453183579
    4      O       2.3873365893     4.0552583765     4.5454196110
    5      H       4.5163595075     3.2444070077     3.2699555921
    6      H       1.3972758598     2.7748267666     3.2672097713
    7      H       1.9526942117     1.3590905130     4.8278215552
    8      H       1.5474826668     4.1032591988     5.0157001611
    9      O       5.6975426616     3.2414361136     3.8075823881
   10      O       6.4130227600     2.2860855680     3.1000394468
   11      C       6.3165734306     1.0360810527     3.7686481473
   12      O       5.0703967078     0.4265251607     3.5682151748
   13      H       7.0768270191     0.4231867006     3.2922705879
   14      H       6.5194907487     1.1852720632     4.8276416176
   15      H       4.4275856124     0.7909056312     4.1978276165
   16      O       3.5917577349     2.0604805824     1.7793524690
   17      O       3.1521266305     4.2781072892     1.9525340877
   18      H       4.0659461250     1.3447950163     2.2450872203
   19      H       3.7411685994     4.3253011144     1.1872573721
 ----------------------------------------------------------------

   18    -646.2086344277      4.58e-08  Convergence criterion met
 Total energy in the final basis set =     -646.2020462411
 Final energy is   -646.202046241126
 **  OPTIMIZATION CONVERGED  **

                    Orbital Energies (a.u.)
 --------------------------------------------------------------

 Alpha MOs
 -- Occupied --
-19.4127 -19.4000 -19.3695 -19.3627 -19.3556 -19.3527 -19.3505 -10.4684
-10.4578 -10.4396  -1.2842  -1.2364  -1.2037  -1.1752  -1.1597  -1.1418
 -1.0150  -0.8674  -0.7894  -0.7454  -0.7031  -0.6833  -0.6643  -0.6458
 -0.6368  -0.6129  -0.6048  -0.5992  -0.5584  -0.5246  -0.5216  -0.5173
 -0.4937  -0.4881  -0.4647  -0.4470  -0.4392  -0.4295  -0.4168  -0.4119
 -0.4017  -0.3260

 Beta MOs
 -- Occupied --
-19.4104 -19.3861 -19.3673 -19.3603 -19.3557 -19.3526 -19.3505 -10.4620
-10.4572 -10.4397  -1.2719  -1.2316  -1.2023  -1.1730  -1.1555  -1.1407
 -0.9951  -0.8607  -0.7857  -0.7387  -0.6904  -0.6799  -0.6602  -0.6433
 -0.6303  -0.6062  -0.6006  -0.5888  -0.5409  -0.5191  -0.5186  -0.5015
 -0.4863  -0.4802  -0.4553  -0.4367  -0.4348  -0.4273  -0.4156  -0.3915
 -0.3708

          Ground-State Mulliken Net Atomic Charges

     Atom                 Charge (a.u.)    Spin (a.u.)
  --------------------------------------------------------
      1 C                    -0.464630       0.332963
      2 C                     0.087954      -0.002436
      3 O                    -0.453046      -0.000101
      4 O                    -0.420262       0.001952
      5 H                     0.535037       0.023389
      6 H                     0.277532       0.015143
      7 H                     0.367819      -0.000139
      8 H                     0.348919      -0.000989
      9 O                    -0.364631       0.416153
     10 O                    -0.101002       0.073355
     11 C                    -0.187127       0.000158
     12 O                    -0.424674      -0.000826
     13 H                     0.205195      -0.000018
     14 H                     0.234826       0.001361
     15 H                     0.353183       0.000572
     16 O                    -0.349359       0.069911
     17 O                    -0.355404       0.070056
     18 H                     0.372014       0.000591
     19 H                     0.337656      -0.001097
  --------------------------------------------------------
  Sum of atomic charges =    -0.000000

                    Cartesian Multipole Moments
 -----------------------------------------------------------------
    Charge (ESU x 10^10)
                -0.0000
    Dipole Moment (Debye)
         X      -4.4238      Y      -3.1453      Z       2.2235
       Tot       5.8658
    Quadrupole Moments (Debye-Ang)
        XX     -81.4824     XY     -26.9998     YY     -80.2359
        XZ     -13.9470     YZ     -11.6487     ZZ     -41.2108

 Total job time:  1879.76s(wall), 46016.70s(cpu)
        *  Thank you very much for using Q-Chem.  Have a nice day.  *
