 Q-Chem 5.4, Q-Chem, Inc., Pleasanton, CA (2021)
 Q-Chem 5.4.1 for Intel X86 EM64T Linux

User input:
--------------------------------------------------------------
$molecule
0 2
C    0.0147868   -0.2201470    0.7491220
C   -0.8339675   -1.0277593    1.7313942
C   -1.5773662   -2.2112444    1.1099962
C   -2.1666233   -1.9164666   -0.2267948
C   -1.8377068   -0.7392019   -0.8682438
C   -1.1368627    0.3465842   -0.0870781
C   -0.7155843    1.5496840   -0.9231352
H    0.4733530    0.6098822    1.3045962
H   -0.3030758   -1.3060163    2.6447065
H   -2.2318067   -2.7158512    1.8276012
H   -2.8731224   -2.6210622   -0.6459793
H   -2.2334629   -0.5172063   -1.8563083
H   -1.5560006    1.9374977   -1.5089036
O    0.3763963    1.1830084   -1.7654066
H   -0.3548961    2.3335902   -0.2534262
H    0.0197799    0.6633426   -2.5054954
O    0.9759996   -0.9388306    0.0161507
H    1.2252805   -0.3325842   -0.7091200
O   -1.8056726   -0.0486043    2.1239195
O   -2.0370977    0.8099405    0.9382599
O   -0.8235334   -3.0468269    0.2901215
$end

$rem
BASIS = 6-311++G(2df,2p)
GUI = 2
JOB_TYPE = Frequency
METHOD = wB97M-V
SCF_ALGORITHM = DIIS_GDM
MAX_SCF_CYCLES = 400
SCF_CONVERGENCE = 6
THRESH = 11
solvent_method = SMD
$end

--------------------------------------------------------------

   19    -648.0975093365      4.91e-07  Convergence criterion met
 Total energy in the final basis set =     -648.0930727434
   17    -648.0975069910      9.99e-07  Convergence criterion met
 Total energy in the final basis set =     -648.0930668222
   18    -648.0975097568      4.39e-07  Convergence criterion met
 Total energy in the final basis set =     -648.0930765494
   18    -648.0975085362      4.38e-07  Convergence criterion met
 Total energy in the final basis set =     -648.0930742622
   18    -648.0975082106      4.42e-07  Convergence criterion met
 Total energy in the final basis set =     -648.0930691938
   18    -648.0975130156      4.38e-07  Convergence criterion met
 Total energy in the final basis set =     -648.0930786673
   18    -648.0975038205      4.40e-07  Convergence criterion met
 Total energy in the final basis set =     -648.0930648732
   18    -648.0975086239      4.38e-07  Convergence criterion met
   17    -648.0975006583      9.86e-07  Convergence criterion met
 Total energy in the final basis set =     -648.0930701230
 Frequency:      -457.43                 112.30                 146.77
 Force Cnst:      1.2540                 0.0497                 0.0485
 Red. Mass:      10.1719                 6.6858                 3.8237
 IR Intens:       10.041                  4.542                  1.454
 Frequency:       209.94                 216.16                 267.92
 Force Cnst:      0.1772                 0.2359                 0.3250
 Red. Mass:       6.8227                 8.5711                 7.6847
 IR Intens:        2.840                 10.696                 24.410
 Frequency:       287.14                 315.60                 364.77
 Force Cnst:      0.1549                 0.3284                 0.2823
 Red. Mass:       3.1891                 5.5966                 3.6013
 IR Intens:       14.259                 49.952                  3.186
 Frequency:       391.08                 438.05                 458.80
 Force Cnst:      0.6243                 0.6415                 0.1837
 Red. Mass:       6.9284                 5.6744                 1.4815
 IR Intens:        2.650                  5.612                188.357
 Frequency:       470.66                 526.56                 574.47
 Force Cnst:      0.2355                 0.6545                 0.2201
 Red. Mass:       1.8043                 4.0065                 1.1318
 IR Intens:      114.268                 46.937                177.912
 Frequency:       612.01                 631.06                 693.82
 Force Cnst:      1.3657                 1.4298                 1.2276
 Red. Mass:       6.1887                 6.0936                 4.3282
 IR Intens:        8.251                  7.356                 42.459
 Frequency:       760.83                 780.35                 845.56
 Force Cnst:      0.8811                 1.0183                 1.9892
 Red. Mass:       2.5836                 2.8383                 4.7223
 IR Intens:       26.453                 32.591                 60.965
 Frequency:       862.24                 917.61                 927.97
 Force Cnst:      1.7386                 1.1910                 1.6215
 Red. Mass:       3.9692                 2.4007                 3.1959
 IR Intens:       22.673                  2.630                  2.601
 Frequency:       966.15                 995.90                1001.05
 Force Cnst:      0.9518                 1.4899                 1.2651
 Red. Mass:       1.7306                 2.5496                 2.1426
 IR Intens:       32.030                 87.462                 30.978
 Frequency:      1035.08                1064.49                1081.54
 Force Cnst:      4.6016                 3.8713                 1.1084
 Red. Mass:       7.2897                 5.7986                 1.6082
 IR Intens:       65.016                 98.904                 35.483
 Frequency:      1130.87                1140.66                1167.88
 Force Cnst:      1.1572                 1.7698                 1.0401
 Red. Mass:       1.5358                 2.3087                 1.2943
 IR Intens:       11.105                130.797                  9.386
 Frequency:      1205.30                1246.48                1255.74
 Force Cnst:      1.5729                 1.2383                 1.9345
 Red. Mass:       1.8376                 1.3527                 2.0822
 IR Intens:       34.413                  3.105                 11.987
 Frequency:      1281.87                1296.55                1317.37
 Force Cnst:      1.7555                 1.4959                 1.5542
 Red. Mass:       1.8132                 1.5104                 1.5200
 IR Intens:       59.189                  1.320                 78.245
 Frequency:      1359.92                1386.61                1394.22
 Force Cnst:      1.7806                 1.9085                 1.6937
 Red. Mass:       1.6341                 1.6848                 1.4788
 IR Intens:       20.512                118.187                 30.381
 Frequency:      1401.38                1404.43                1415.89
 Force Cnst:      1.8095                 2.5903                 1.4841
 Red. Mass:       1.5639                 2.2290                 1.2565
 IR Intens:       27.611                 32.707                 70.983
 Frequency:      1463.60                1485.89                1493.16
 Force Cnst:      3.0837                 2.2583                 1.5005
 Red. Mass:       2.4433                 1.7360                 1.1423
 IR Intens:       68.778                 18.749                 14.235
 Frequency:      3003.90                3033.21                3053.43
 Force Cnst:      5.7683                 5.7572                 5.9749
 Red. Mass:       1.0850                 1.0621                 1.0877
 IR Intens:       50.065                 50.902                 42.640
 Frequency:      3093.77                3099.18                3153.99
 Force Cnst:      6.1388                 6.2564                 6.3870
 Red. Mass:       1.0886                 1.1056                 1.0897
 IR Intens:        6.896                 23.937                  4.469
 Frequency:      3207.84                3605.25                3713.53
 Force Cnst:      6.6318                 8.1608                 8.6652
 Red. Mass:       1.0938                 1.0656                 1.0665
 IR Intens:        2.478                340.970                127.415

 STANDARD THERMODYNAMIC QUANTITIES AT   298.15 K  AND     1.00 ATM

   This Molecule has  1 Imaginary Frequencies
   Zero point vibrational energy:      101.168 kcal/mol

   Atom    1 Element C  Has Mass   12.00000
   Atom    2 Element C  Has Mass   12.00000
   Atom    3 Element C  Has Mass   12.00000
   Atom    4 Element C  Has Mass   12.00000
   Atom    5 Element C  Has Mass   12.00000
   Atom    6 Element C  Has Mass   12.00000
   Atom    7 Element C  Has Mass   12.00000
   Atom    8 Element H  Has Mass    1.00783
   Atom    9 Element H  Has Mass    1.00783
   Atom   10 Element H  Has Mass    1.00783
   Atom   11 Element H  Has Mass    1.00783
   Atom   12 Element H  Has Mass    1.00783
   Atom   13 Element H  Has Mass    1.00783
   Atom   14 Element O  Has Mass   15.99491
   Atom   15 Element H  Has Mass    1.00783
   Atom   16 Element H  Has Mass    1.00783
   Atom   17 Element O  Has Mass   15.99491
   Atom   18 Element H  Has Mass    1.00783
   Atom   19 Element O  Has Mass   15.99491
   Atom   20 Element O  Has Mass   15.99491
   Atom   21 Element O  Has Mass   15.99491
   Molecular Mass:   173.045020 amu
   Principal axes and moments of inertia in amu*Bohr^2:
                             1           2           3
    Eigenvalues --     1212.96824  1898.46422  2184.20683
          X               0.30204    -0.54645     0.78113
          Y               0.80322     0.58720     0.10019
          Z              -0.51343     0.59716     0.61627
   Rotational Symmetry Number is   1
   The Molecule is an Asymmetric Top
   Translational Enthalpy:        0.889 kcal/mol
   Rotational Enthalpy:           0.889 kcal/mol
   Vibrational Enthalpy:        105.423 kcal/mol
   gas constant (RT):             0.592 kcal/mol
   Translational Entropy:        41.352  cal/mol.K
   Rotational Entropy:           29.998  cal/mol.K
   Vibrational Entropy:          23.145  cal/mol.K

   Total Enthalpy:              107.793 kcal/mol
   Total Entropy:                94.496  cal/mol.K
 Total job time:  28651.06s(wall), 681950.54s(cpu)
        *  Thank you very much for using Q-Chem.  Have a nice day.  *
 Q-Chem 5.4, Q-Chem, Inc., Pleasanton, CA (2021)
 Q-Chem 5.4.1 for Intel X86 EM64T Linux

User input:
--------------------------------------------------------------

$rem
JOBTYPE = ts
SCF_GUESS = read
GEOM_OPT_HESSIAN = read
MAX_SCF_CYCLES = 350
GEOM_OPT_DMAX = 60
GEOM_OPT_MAX_CYCLES = 250
METHOD = wB97M-v
BASIS = 6-311++G(2df,2p)
SCF_CONVERGENCE = 7
THRESH = 12
SCF_ALGORITHM = DIIS_GDM
solvent_method = SMD
$end

$molecule
read
$end
--------------------------------------------------------------

   20    -648.0975093267      6.22e-08  Convergence criterion met
 Total energy in the final basis set =     -648.0930727337
   20    -648.0980070086      5.02e-08  Convergence criterion met
 Total energy in the final basis set =     -648.0935591042
   20    -648.0981858833      5.12e-08  Convergence criterion met
 Total energy in the final basis set =     -648.0937211891
   20    -648.0982161458      5.08e-08  Convergence criterion met
 Total energy in the final basis set =     -648.0937400327
   20    -648.0982267552      5.15e-08  Convergence criterion met
 Total energy in the final basis set =     -648.0937438370

             Standard Nuclear Orientation (Angstroms)
    I     Atom           X                Y                Z
 ----------------------------------------------------------------
    1      C       0.0168775734    -0.2231531313     0.7556433661
    2      C      -0.8380829887    -1.0278023842     1.7300135275
    3      C      -1.5857160241    -2.2037859763     1.1088387015
    4      C      -2.1644613030    -1.9145343787    -0.2271473562
    5      C      -1.8270645154    -0.7440471899    -0.8698337464
    6      C      -1.1240388962     0.3375925168    -0.0935067763
    7      C      -0.7223888193     1.5455124813    -0.9245674129
    8      H       0.4648556378     0.6054771869     1.3097981444
    9      H      -0.3132145792    -1.3089664354     2.6401364289
   10      H      -2.2377920477    -2.7035615070     1.8231329887
   11      H      -2.8768975164    -2.6089175855    -0.6401746529
   12      H      -2.2122237860    -0.5237093643    -1.8572462251
   13      H      -1.5788185645     1.9393532858    -1.4726267938
   14      O       0.3340744096     1.1900272212    -1.8101920600
   15      H      -0.3399549650     2.3158873937    -0.2588302000
   16      H      -0.0363840608     0.7149602824    -2.5625242328
   17      O       0.9956466999    -0.9471610338     0.0530123903
   18      H       1.3109292072    -0.3621561355    -0.6500584594
   19      O      -1.8046875271    -0.0448456206     2.1117902717
   20      O      -2.0259045229     0.8014999312     0.9292443663
   21      O      -0.8359363117    -3.0459409570     0.2910743304
 ----------------------------------------------------------------

   20    -648.0982256203      5.18e-08  Convergence criterion met
 Total energy in the final basis set =     -648.0937440701
 Final energy is   -648.093744070139
 **  OPTIMIZATION CONVERGED  **

                    Orbital Energies (a.u.)
 --------------------------------------------------------------

 Alpha MOs
 -- Occupied --
-19.4094 -19.4090 -19.3575 -19.3499 -19.3451 -10.4206 -10.4110 -10.4105
-10.4073 -10.3967 -10.3952 -10.3799  -1.2775  -1.1777  -1.1677  -1.1605
 -1.0785  -0.9621  -0.8926  -0.8491  -0.8065  -0.7609  -0.7215  -0.6952
 -0.6660  -0.6437  -0.6143  -0.6053  -0.5910  -0.5852  -0.5665  -0.5523
 -0.5328  -0.5288  -0.5198  -0.4995  -0.4935  -0.4794  -0.4554  -0.4491
 -0.4289  -0.4209  -0.3933  -0.3799  -0.3653  -0.3375

 Beta MOs
 -- Occupied --
-19.4091 -19.4080 -19.3498 -19.3451 -19.3437 -10.4211 -10.4108 -10.4105
-10.4067 -10.3967 -10.3965 -10.3715  -1.2762  -1.1764  -1.1635  -1.1418
 -1.0767  -0.9535  -0.8857  -0.8457  -0.8013  -0.7559  -0.7171  -0.6929
 -0.6636  -0.6387  -0.6125  -0.5998  -0.5866  -0.5788  -0.5631  -0.5447
 -0.5299  -0.5257  -0.5125  -0.4981  -0.4810  -0.4705  -0.4513  -0.4415
 -0.4206  -0.3999  -0.3877  -0.3742  -0.3579

          Ground-State Mulliken Net Atomic Charges

     Atom                 Charge (a.u.)    Spin (a.u.)
  --------------------------------------------------------
      1 C                    -0.126161       0.022539
      2 C                    -0.109913      -0.036617
      3 C                    -0.380297       0.109460
      4 C                    -0.205231      -0.152748
      5 C                    -0.353726       0.620366
      6 C                     0.188155      -0.066092
      7 C                    -0.333016       0.006287
      8 H                     0.330779      -0.001871
      9 H                     0.275612       0.000486
     10 H                     0.265729       0.002272
     11 H                     0.326400       0.004536
     12 H                     0.331933      -0.009306
     13 H                     0.253367      -0.000273
     14 O                    -0.379378       0.002354
     15 H                     0.240749      -0.000583
     16 H                     0.329058      -0.000150
     17 O                    -0.416441       0.002667
     18 H                     0.339173       0.002070
     19 O                    -0.105700      -0.000935
     20 O                    -0.120562       0.027584
     21 O                    -0.350529       0.467954
  --------------------------------------------------------
  Sum of atomic charges =     0.000000

                    Cartesian Multipole Moments
 -----------------------------------------------------------------
    Charge (ESU x 10^10)
                -0.0000
    Dipole Moment (Debye)
         X      -1.9871      Y       2.6432      Z      -2.9872
       Tot       4.4563
    Quadrupole Moments (Debye-Ang)
        XX     -69.9578     XY       6.7333     YY     -81.7665
        XZ       9.7504     YZ      -4.4520     ZZ     -60.7813

 Total job time:  1565.95s(wall), 37972.33s(cpu)
        *  Thank you very much for using Q-Chem.  Have a nice day.  *
