 Q-Chem 5.4, Q-Chem, Inc., Pleasanton, CA (2021)
 Q-Chem 5.4.1 for Intel X86 EM64T Linux

User input:
--------------------------------------------------------------
$molecule
0 2
H         0.5221190841    1.0624935834    1.6063616378
C        -0.1360819585    1.1351395414    0.7537547651
C        -1.3861295936    1.7201189459    0.8366979522
H        -1.7282485958    2.1346591969    1.7762671670
C        -2.2006247765    1.7762768476   -0.2791647448
H        -3.1847827486    2.2193444721   -0.2484039906
C        -1.6908398275    1.1702156389   -1.5478450476
H        -2.2841249255    1.4174339998   -2.4237920985
C        -0.1906802087    1.4284776753   -1.7217830409
H         0.1525161941    1.0113883466   -2.6674343465
C         0.2783260242    0.5557988021   -0.5624488382
H         1.3299430692    0.2877702941   -0.6132569727
O         0.2189234637    2.7672178587   -1.5690098982
H         0.0684484404    3.2229045222   -2.4041464887
O        -1.7103833987   -0.2705418972   -1.4609717854
O        -0.4471325424   -0.6645493277   -0.8222543700
$end

$rem
BASIS = 6-311++G(2df,2p)
GUI = 2
JOB_TYPE = Frequency
METHOD = wB97M-V
SOLVENT_METHOD = SMD
SCF_ALGORITHM = DIIS_GDM
MAX_SCF_CYCLES = 400
SCF_CONVERGENCE = 7
THRESH = 12
$end
--------------------------------------------------------------

   18    -458.3682668577      9.10e-08  Convergence criterion met
 Total energy in the final basis set =     -458.3643059392
   16    -458.3682667732      4.77e-08  Convergence criterion met
 Total energy in the final basis set =     -458.3643056297
   16    -458.3682663552      4.75e-08  Convergence criterion met
 Total energy in the final basis set =     -458.3643056606
   16    -458.3682667485      4.76e-08  Convergence criterion met
 Total energy in the final basis set =     -458.3643058546
   16    -458.3682668786      4.76e-08  Convergence criterion met
 Total energy in the final basis set =     -458.3643059352
   16    -458.3682666980      4.78e-08  Convergence criterion met
 Total energy in the final basis set =     -458.3643054879
   16    -458.3682661431      4.72e-08  Convergence criterion met
 Total energy in the final basis set =     -458.3643055144
   16    -458.3682664887      4.45e-08  Convergence criterion met
 Total energy in the final basis set =     -458.3643055843
   16    -458.3682668472      4.84e-08  Convergence criterion met
 Total energy in the final basis set =     -458.3643059758
   16    -458.3682666354      4.49e-08  Convergence criterion met
 Total energy in the final basis set =     -458.3643058902
   16    -458.3682662092      5.14e-08  Convergence criterion met
 Total energy in the final basis set =     -458.3643051172
   16    -458.3682662981      4.47e-08  Convergence criterion met
 Total energy in the final basis set =     -458.3643053295
   16    -458.3682661556      5.29e-08  Convergence criterion met
 Total energy in the final basis set =     -458.3643052870
   16    -458.3682667002      4.50e-08  Convergence criterion met
 Total energy in the final basis set =     -458.3643059313
   16    -458.3682666438      4.81e-08  Convergence criterion met
 Total energy in the final basis set =     -458.3643055757

                    Orbital Energies (a.u.)
 --------------------------------------------------------------

 Alpha MOs
 -- Occupied --
-19.4004 -19.4003 -19.3481 -10.4055 -10.4052 -10.4030 -10.3540 -10.3537
-10.3489  -1.2668  -1.1709  -1.0637  -0.9729  -0.8795  -0.8432  -0.7526
 -0.7179  -0.6822  -0.6602  -0.6218  -0.5827  -0.5749  -0.5576  -0.5362
 -0.5309  -0.5120  -0.4894  -0.4744  -0.4532  -0.4274  -0.4201  -0.4002
 -0.3605  -0.2843

 Beta MOs
 -- Occupied --
-19.3990 -19.3989 -19.3482 -10.4058 -10.4048 -10.4036 -10.3520 -10.3457
-10.3455  -1.2642  -1.1706  -1.0605  -0.9657  -0.8770  -0.8279  -0.7503
 -0.7100  -0.6805  -0.6561  -0.6185  -0.5780  -0.5693  -0.5514  -0.5332
 -0.5269  -0.5083  -0.4881  -0.4692  -0.4506  -0.4201  -0.3979  -0.3899
 -0.3549

          Ground-State Mulliken Net Atomic Charges

     Atom                 Charge (a.u.)    Spin (a.u.)
  --------------------------------------------------------
      1 H                     0.311130      -0.013781
      2 C                    -0.298013       0.563709
      3 C                    -0.229570      -0.153464
      4 H                     0.288778       0.006298
      5 C                    -0.336115       0.564735
      6 H                     0.306154      -0.013121
      7 C                    -0.217846      -0.021628
      8 H                     0.285044       0.004973
      9 C                    -0.091652       0.024464
     10 H                     0.276102      -0.002438
     11 C                    -0.195329      -0.020495
     12 H                     0.283936       0.004786
     13 O                    -0.434870      -0.001148
     14 H                     0.342624      -0.000458
     15 O                    -0.141790       0.028568
     16 O                    -0.148583       0.029000
  --------------------------------------------------------
  Sum of atomic charges =    -0.000000

                    Cartesian Multipole Moments
 -----------------------------------------------------------------
    Charge (ESU x 10^10)
                 0.0000
    Dipole Moment (Debye)
         X       0.4511      Y       3.7449      Z      -1.7153
       Tot       4.1437
    Quadrupole Moments (Debye-Ang)
        XX     -49.7103     XY      -8.5949     YY     -53.0014
        XZ       0.9956     YZ      -9.4034     ZZ     -40.3265

             Standard Nuclear Orientation (Angstroms)
    I     Atom           X                Y                Z
 ----------------------------------------------------------------
    1      H       0.5221190841     1.0624935834     1.6063616378
    2      C      -0.1360819585     1.1351395414     0.7537547651
    3      C      -1.3861295936     1.7201189459     0.8366979522
    4      H      -1.7282485958     2.1346591969     1.7762671670
    5      C      -2.2006247765     1.7762768476    -0.2791647448
    6      H      -3.1847827486     2.2193444721    -0.2484039906
    7      C      -1.6908398275     1.1702156389    -1.5478450476
    8      H      -2.2841249255     1.4174339998    -2.4237920985
    9      C      -0.1906802087     1.4284776753    -1.7217830409
   10      H       0.1525161941     1.0113883466    -2.6674343465
   11      C       0.2783260242     0.5557988021    -0.5624488382
   12      H       1.3299430692     0.2877702941    -0.6132569727
   13      O       0.2189234637     2.7672178587    -1.5690098982
   14      H       0.0684484404     3.2229045222    -2.4041464887
   15      O      -1.7103833987    -0.2705418972    -1.4609717854
   16      O      -0.4471325424    -0.6645493277    -0.8222543700
 ----------------------------------------------------------------

 Frequency:       134.99                 214.84                 236.34
 Force Cnst:      0.0653                 0.1503                 0.0364
 Red. Mass:       6.0822                 5.5254                 1.1059
 IR Intens:        0.006                 31.205                209.577
 Frequency:       288.76                 323.10                 417.36
 Force Cnst:      0.2004                 0.3183                 0.3234
 Red. Mass:       4.0784                 5.1748                 3.1511
 IR Intens:        4.238                 23.936                  3.923
 Frequency:       505.08                 553.45                 570.33
 Force Cnst:      0.3420                 1.1286                 0.4838
 Red. Mass:       2.2753                 6.2534                 2.5246
 IR Intens:       27.338                  1.955                 26.973
 Frequency:       622.75                 693.66                 708.28
 Force Cnst:      1.0238                 0.8615                 0.6993
 Red. Mass:       4.4808                 3.0389                 2.3660
 IR Intens:        2.291                 81.112                  3.888
 Frequency:       798.10                 845.56                 871.98
 Force Cnst:      1.1060                 2.7916                 1.4200
 Red. Mass:       2.9471                 6.6269                 3.1697
 IR Intens:        8.554                 69.736                  1.024
 Frequency:       883.21                 958.34                 984.69
 Force Cnst:      1.2924                 3.5626                 2.1150
 Red. Mass:       2.8121                 6.5837                 3.7021
 IR Intens:        1.012                 89.902                  7.917
 Frequency:       993.89                 997.77                1026.80
 Force Cnst:      1.5155                 0.7760                 2.4424
 Red. Mass:       2.6039                 1.3229                 3.9319
 IR Intens:       79.356                  3.524                  6.734
 Frequency:      1074.48                1114.92                1122.28
 Force Cnst:      1.0152                 0.8198                 0.9736
 Red. Mass:       1.4925                 1.1193                 1.3120
 IR Intens:        4.870                  0.306                  2.948
 Frequency:      1184.63                1243.21                1267.85
 Force Cnst:      1.4355                 1.5037                 1.4173
 Red. Mass:       1.7362                 1.6512                 1.4965
 IR Intens:       18.403                  7.359                 12.244
 Frequency:      1285.59                1313.93                1338.94
 Force Cnst:      1.2790                 2.2260                 1.4897
 Red. Mass:       1.3135                 2.1885                 1.4104
 IR Intens:       13.152                154.396                 47.934
 Frequency:      1361.52                1376.99                1437.92
 Force Cnst:      1.8114                 2.1196                 2.4531
 Red. Mass:       1.6584                 1.8973                 2.0137
 IR Intens:       13.027                 23.955                 19.287
 Frequency:      1456.74                1508.07                3104.49
 Force Cnst:      2.6269                 3.7673                 6.1731
 Red. Mass:       2.1010                 2.8115                 1.0871
 IR Intens:       31.180                 15.549                 33.121
 Frequency:      3144.77                3148.76                3191.31
 Force Cnst:      6.3347                 6.3694                 6.5364
 Red. Mass:       1.0872                 1.0904                 1.0893
 IR Intens:       14.015                 10.447                  7.865
 Frequency:      3221.93                3228.77                3834.89
 Force Cnst:      6.6676                 6.7330                 9.2442
 Red. Mass:       1.0902                 1.0962                 1.0669
 IR Intens:       12.444                  7.081                156.172

 STANDARD THERMODYNAMIC QUANTITIES AT   298.15 K  AND     1.00 ATM

   This Molecule has  0 Imaginary Frequencies
   Zero point vibrational energy:       78.042 kcal/mol

   Atom    1 Element H  Has Mass    1.00783
   Atom    2 Element C  Has Mass   12.00000
   Atom    3 Element C  Has Mass   12.00000
   Atom    4 Element H  Has Mass    1.00783
   Atom    5 Element C  Has Mass   12.00000
   Atom    6 Element H  Has Mass    1.00783
   Atom    7 Element C  Has Mass   12.00000
   Atom    8 Element H  Has Mass    1.00783
   Atom    9 Element C  Has Mass   12.00000
   Atom   10 Element H  Has Mass    1.00783
   Atom   11 Element C  Has Mass   12.00000
   Atom   12 Element H  Has Mass    1.00783
   Atom   13 Element O  Has Mass   15.99491
   Atom   14 Element H  Has Mass    1.00783
   Atom   15 Element O  Has Mass   15.99491
   Atom   16 Element O  Has Mass   15.99491
   Molecular Mass:   127.039540 amu
   Principal axes and moments of inertia in amu*Bohr^2:
                             1           2           3
    Eigenvalues --      805.07743   901.13421   980.37756
          X               0.26661    -0.44691     0.85393
          Y               0.95851     0.03024    -0.28344
          Z               0.10085     0.89407     0.43643
   Rotational Symmetry Number is   1
   The Molecule is an Asymmetric Top
   Translational Enthalpy:        0.889 kcal/mol
   Rotational Enthalpy:           0.889 kcal/mol
   Vibrational Enthalpy:         80.821 kcal/mol
   gas constant (RT):             0.592 kcal/mol
   Translational Entropy:        40.431  cal/mol.K
   Rotational Entropy:           28.055  cal/mol.K
   Vibrational Entropy:          14.717  cal/mol.K

   Total Enthalpy:               83.191 kcal/mol
   Total Entropy:                83.203  cal/mol.K
 Total job time:  13933.78s(wall), 201895.20s(cpu)
        *  Thank you very much for using Q-Chem.  Have a nice day.  *
