 Q-Chem 5.4, Q-Chem, Inc., Pleasanton, CA (2021)
 Q-Chem 5.4.1 for Intel X86 EM64T Linux

User input:
--------------------------------------------------------------
$molecule
0 2
H         0.5273481328    1.0602979496    1.6148240282
C        -0.1303467889    1.1355652055    0.7560717843
C        -1.3838129386    1.7264163305    0.8364153650
H        -1.7278103560    2.1448730587    1.7792276545
C        -2.1979016224    1.7861578746   -0.2861270718
H        -3.1863144259    2.2314246376   -0.2560875565
C        -1.6851021183    1.1715818243   -1.5544428340
H        -2.2793006330    1.4184920032   -2.4361716321
C        -0.1800849955    1.4254019250   -1.7264972292
H         0.1629600815    1.0006358305   -2.6755720884
C         0.2821254422    0.5490876100   -0.5624422398
H         1.3368246597    0.2725341943   -0.6107463909
O         0.2386586399    2.7605594299   -1.5646496832
H        -0.0027950787    3.2341924898   -2.3770580432
O        -1.7153710384   -0.2711056637   -1.4652114372
O        -0.4478292604   -0.6719661998   -0.8189627256
$end

$rem
BASIS = 6-311++G(2df,2p)
GUI = 2
JOB_TYPE = Optimization
METHOD = wB97M-V
SCF_ALGORITHM = DIIS_GDM
MAX_SCF_CYCLES = 400
GEOM_OPT_MAX_CYCLES = 150
SCF_CONVERGENCE = 7
THRESH = 12
Solvent_method = SMD
$end
--------------------------------------------------------------

   18    -458.3679292212      7.04e-08  Convergence criterion met
 Total energy in the final basis set =     -458.3639436497
   16    -458.3682303729      4.85e-08  Convergence criterion met
 Total energy in the final basis set =     -458.3642776985
   16    -458.3682426367      5.25e-08  Convergence criterion met
 Total energy in the final basis set =     -458.3642876798
   16    -458.3682523601      5.18e-08  Convergence criterion met
 Total energy in the final basis set =     -458.3642945877
   16    -458.3682606500      5.20e-08  Convergence criterion met
 Total energy in the final basis set =     -458.3643005710
   16    -458.3682658650      5.07e-08  Convergence criterion met
 Total energy in the final basis set =     -458.3643047492

             Standard Nuclear Orientation (Angstroms)
    I     Atom           X                Y                Z
 ----------------------------------------------------------------
    1      H       0.5221190841     1.0624935834     1.6063616378
    2      C      -0.1360819585     1.1351395414     0.7537547651
    3      C      -1.3861295936     1.7201189459     0.8366979522
    4      H      -1.7282485958     2.1346591969     1.7762671670
    5      C      -2.2006247765     1.7762768476    -0.2791647448
    6      H      -3.1847827486     2.2193444721    -0.2484039906
    7      C      -1.6908398275     1.1702156389    -1.5478450476
    8      H      -2.2841249255     1.4174339998    -2.4237920985
    9      C      -0.1906802087     1.4284776753    -1.7217830409
   10      H       0.1525161941     1.0113883466    -2.6674343465
   11      C       0.2783260242     0.5557988021    -0.5624488382
   12      H       1.3299430692     0.2877702941    -0.6132569727
   13      O       0.2189234637     2.7672178587    -1.5690098982
   14      H       0.0684484404     3.2229045222    -2.4041464887
   15      O      -1.7103833987    -0.2705418972    -1.4609717854
   16      O      -0.4471325424    -0.6645493277    -0.8222543700
 ----------------------------------------------------------------

   16    -458.3682668579      4.85e-08  Convergence criterion met
 Total energy in the final basis set =     -458.3643059394
 Final energy is   -458.364305939399
 **  OPTIMIZATION CONVERGED  **

                    Orbital Energies (a.u.)
 --------------------------------------------------------------

 Alpha MOs
 -- Occupied --
-19.4004 -19.4003 -19.3481 -10.4055 -10.4052 -10.4030 -10.3540 -10.3537
-10.3489  -1.2667  -1.1709  -1.0638  -0.9728  -0.8795  -0.8432  -0.7526
 -0.7180  -0.6822  -0.6602  -0.6218  -0.5827  -0.5749  -0.5576  -0.5362
 -0.5309  -0.5121  -0.4894  -0.4744  -0.4532  -0.4274  -0.4201  -0.4002
 -0.3606  -0.2843

 Beta MOs
 -- Occupied --
-19.3991 -19.3990 -19.3482 -10.4058 -10.4048 -10.4036 -10.3520 -10.3457
-10.3455  -1.2641  -1.1706  -1.0606  -0.9657  -0.8770  -0.8279  -0.7503
 -0.7100  -0.6805  -0.6561  -0.6185  -0.5780  -0.5693  -0.5515  -0.5332
 -0.5269  -0.5083  -0.4881  -0.4693  -0.4506  -0.4201  -0.3979  -0.3899
 -0.3550

          Ground-State Mulliken Net Atomic Charges

     Atom                 Charge (a.u.)    Spin (a.u.)
  --------------------------------------------------------
      1 H                     0.311124      -0.013780
      2 C                    -0.298035       0.563754
      3 C                    -0.229741      -0.153468
      4 H                     0.288775       0.006299
      5 C                    -0.336013       0.564709
      6 H                     0.306156      -0.013122
      7 C                    -0.218014      -0.021616
      8 H                     0.285052       0.004975
      9 C                    -0.091499       0.024447
     10 H                     0.276079      -0.002439
     11 C                    -0.195215      -0.020494
     12 H                     0.283940       0.004786
     13 O                    -0.434834      -0.001148
     14 H                     0.342627      -0.000457
     15 O                    -0.141861       0.028572
     16 O                    -0.148540       0.028982
  --------------------------------------------------------
  Sum of atomic charges =    -0.000000

                    Cartesian Multipole Moments
 -----------------------------------------------------------------
    Charge (ESU x 10^10)
                 0.0000
    Dipole Moment (Debye)
         X       0.4516      Y       3.7447      Z      -1.7175
       Tot       4.1445
    Quadrupole Moments (Debye-Ang)
        XX     -49.7113     XY      -8.5947     YY     -53.0012
        XZ       0.9970     YZ      -9.4047     ZZ     -40.3236

 Total job time:  1592.49s(wall), 12368.39s(cpu)
        *  Thank you very much for using Q-Chem.  Have a nice day.  *
