 Q-Chem 5.4, Q-Chem, Inc., Pleasanton, CA (2021)
 Q-Chem 5.4.1 for Intel X86 EM64T Linux

User input:
--------------------------------------------------------------
$molecule
-1 2
C         2.7737278708   -0.9941356229   -1.2296684053
O         1.5661201678   -0.2939087776   -1.0478388830
C         3.5640872768   -0.8841968918    0.0803697895
O         2.8850540072   -1.6620343718    1.0236684204
C         3.7487921949    0.5681571043    0.5087780432
C         4.8547083179    0.7564209515    1.5446380311
O         6.0967680773    0.7663639847    1.0769928278
H         3.3581752614   -0.5600443915   -2.0387457175
H         1.1522939703   -0.1826014687   -1.9111496123
H         2.7957705481    0.9014173587    0.9140141571
H         3.9844859065    1.1850652863   -0.3595260990
H         4.6966682365    0.1362694371    2.4379815947
O         2.5486140394   -2.3357380841   -1.5841842458
H         2.1609503249   -2.7859882457   -0.8218620972
O         4.8183074310   -1.5706234612   -0.0798020453
O         5.6766474055   -0.7991425610   -0.9231003406
H         3.2802807119   -1.5349902013    1.8951667694
H         6.0195928996   -0.1375998318   -0.2453493188
O         4.6038983238    2.1728585936    2.1217907883
O         3.5734082181    2.2205271118    2.9102288299
H         6.3012311819    1.9823136189   -0.1522094520
O         6.4555870718    2.6474231566   -0.8637411313
H         5.8612785564    2.3822455057   -1.5726435031
$end

$rem
BASIS = 6-311++G(2df,2p)
GUI = 2
JOB_TYPE = Frequency
METHOD = wB97M-V
SOLVENT_METHOD = SMD
SCF_ALGORITHM = DIIS_GDM
MAX_SCF_CYCLES = 400
SCF_CONVERGENCE = 7
THRESH = 12
$end
--------------------------------------------------------------

   22    -835.4842596214      5.00e-08  Convergence criterion met
 Total energy in the final basis set =     -835.4788402335
   20    -835.4842545602      6.14e-08  Convergence criterion met
 Total energy in the final basis set =     -835.4788390755
   20    -835.4842627711      6.23e-08  Convergence criterion met
 Total energy in the final basis set =     -835.4788391745
   20    -835.4842556270      6.17e-08  Convergence criterion met
 Total energy in the final basis set =     -835.4788391700
   20    -835.4842619439      6.12e-08  Convergence criterion met
 Total energy in the final basis set =     -835.4788390941
   20    -835.4842570640      6.16e-08  Convergence criterion met
 Total energy in the final basis set =     -835.4788391895
   20    -835.4842599940      6.25e-08  Convergence criterion met
 Total energy in the final basis set =     -835.4788390526
   20    -835.4842624263      6.14e-08  Convergence criterion met
 Total energy in the final basis set =     -835.4788392788
   20    -835.4842585181      6.20e-08  Convergence criterion met
 Total energy in the final basis set =     -835.4788393039
   20    -835.4842591172      6.15e-08  Convergence criterion met
 Total energy in the final basis set =     -835.4788398460
   20    -835.4842594002      6.17e-08  Convergence criterion met
 Total energy in the final basis set =     -835.4788398950
   20    -835.4842598934      6.17e-08  Convergence criterion met
 Total energy in the final basis set =     -835.4788401628
   20    -835.4842591406      6.17e-08  Convergence criterion met
 Total energy in the final basis set =     -835.4788400946
   20    -835.4842581862      6.17e-08  Convergence criterion met
 Total energy in the final basis set =     -835.4788396784
   20    -835.4842599331      6.17e-08  Convergence criterion met
 Total energy in the final basis set =     -835.4788396652

                    Orbital Energies (a.u.)
 --------------------------------------------------------------

 Alpha MOs
 -- Occupied --
-19.4384 -19.3997 -19.3936 -19.3714 -19.3568 -19.3457 -19.3446 -19.3130
-19.2762 -10.4604 -10.4448 -10.4342 -10.3369  -1.3216  -1.2649  -1.2072
 -1.1771  -1.1352  -1.1232  -1.1084  -1.0194  -0.9616  -0.8941  -0.8277
 -0.7450  -0.7129  -0.6860  -0.6503  -0.6429  -0.6332  -0.6186  -0.6067
 -0.5893  -0.5867  -0.5718  -0.5667  -0.5540  -0.5337  -0.5155  -0.5107
 -0.4928  -0.4771  -0.4713  -0.4539  -0.4414  -0.4283  -0.4172  -0.4148
 -0.4086  -0.3986  -0.3863  -0.3735  -0.3571  -0.3418

 Beta MOs
 -- Occupied --
-19.4267 -19.3936 -19.3821 -19.3714 -19.3567 -19.3457 -19.3446 -19.3130
-19.2763 -10.4604 -10.4448 -10.4345 -10.3367  -1.2943  -1.2649  -1.2072
 -1.1771  -1.1352  -1.1227  -1.1071  -1.0193  -0.9286  -0.8913  -0.8256
 -0.7427  -0.7083  -0.6858  -0.6460  -0.6395  -0.6283  -0.6146  -0.5934
 -0.5838  -0.5714  -0.5666  -0.5524  -0.5361  -0.5303  -0.5131  -0.5027
 -0.4805  -0.4766  -0.4681  -0.4536  -0.4413  -0.4279  -0.4168  -0.4083
 -0.4068  -0.3950  -0.3776  -0.3482  -0.3412

          Ground-State Mulliken Net Atomic Charges

     Atom                 Charge (a.u.)    Spin (a.u.)
  --------------------------------------------------------
      1 C                    -0.048670       0.000917
      2 O                    -0.414554       0.000006
      3 C                    -0.005085      -0.003275
      4 O                    -0.396045       0.000659
      5 C                    -0.477544       0.000331
      6 C                    -0.219771       0.007348
      7 O                    -0.715248      -0.002402
      8 H                     0.307333       0.000026
      9 H                     0.338053       0.000047
     10 H                     0.265234      -0.000197
     11 H                     0.346020      -0.002526
     12 H                     0.299347       0.006722
     13 O                    -0.459343       0.000145
     14 H                     0.347328      -0.000021
     15 O                    -0.193026       0.000068
     16 O                    -0.380908      -0.000053
     17 H                     0.344401      -0.000932
     18 H                     0.358488       0.000364
     19 O                     0.003297       0.362204
     20 O                    -0.276965       0.630215
     21 H                     0.411399       0.000344
     22 O                    -0.755413      -0.000084
     23 H                     0.321671       0.000094
  --------------------------------------------------------
  Sum of atomic charges =    -1.000000

                    Cartesian Multipole Moments
 -----------------------------------------------------------------
    Charge (ESU x 10^10)
                -4.8032
    Dipole Moment (Debye)
         X     -28.3236      Y      -4.3352      Z      -3.8833
       Tot      28.9154
    Quadrupole Moments (Debye-Ang)
        XX    -257.3462     XY     -29.3446     YY    -111.7021
        XZ     -12.0179     YZ     -19.9937     ZZ     -86.8501

             Standard Nuclear Orientation (Angstroms)
    I     Atom           X                Y                Z
 ----------------------------------------------------------------
    1      C       2.7737278708    -0.9941356229    -1.2296684053
    2      O       1.5661201678    -0.2939087776    -1.0478388830
    3      C       3.5640872768    -0.8841968918     0.0803697895
    4      O       2.8850540072    -1.6620343718     1.0236684204
    5      C       3.7487921949     0.5681571043     0.5087780432
    6      C       4.8547083179     0.7564209515     1.5446380311
    7      O       6.0967680773     0.7663639847     1.0769928278
    8      H       3.3581752614    -0.5600443915    -2.0387457175
    9      H       1.1522939703    -0.1826014687    -1.9111496123
   10      H       2.7957705481     0.9014173587     0.9140141571
   11      H       3.9844859065     1.1850652863    -0.3595260990
   12      H       4.6966682365     0.1362694371     2.4379815947
   13      O       2.5486140394    -2.3357380841    -1.5841842458
   14      H       2.1609503249    -2.7859882457    -0.8218620972
   15      O       4.8183074310    -1.5706234612    -0.0798020453
   16      O       5.6766474055    -0.7991425610    -0.9231003406
   17      H       3.2802807119    -1.5349902013     1.8951667694
   18      H       6.0195928996    -0.1375998318    -0.2453493188
   19      O       4.6038983238     2.1728585936     2.1217907883
   20      O       3.5734082181     2.2205271118     2.9102288299
   21      H       6.3012311819     1.9823136189    -0.1522094520
   22      O       6.4555870718     2.6474231566    -0.8637411313
   23      H       5.8612785564     2.3822455057    -1.5726435031
 ----------------------------------------------------------------

 Frequency:        37.53                  49.82                  64.36
 Force Cnst:      0.0061                 0.0109                 0.0194
 Red. Mass:       7.3130                 7.4360                 7.9623
 IR Intens:        0.596                  0.344                  2.651
 Frequency:        72.96                  97.81                 121.42
 Force Cnst:      0.0256                 0.0540                 0.0442
 Red. Mass:       8.1720                 9.5720                 5.0886
 IR Intens:        1.537                  1.308                  6.706
 Frequency:       144.90                 170.13                 194.50
 Force Cnst:      0.0904                 0.0185                 0.1374
 Red. Mass:       7.3067                 1.0829                 6.1654
 IR Intens:        5.962                198.677                  3.793
 Frequency:       233.04                 243.90                 258.72
 Force Cnst:      0.2467                 0.1568                 0.0597
 Red. Mass:       7.7095                 4.4743                 1.5133
 IR Intens:       57.788                 63.999                182.025
 Frequency:       263.45                 273.56                 306.28
 Force Cnst:      0.2126                 0.1044                 0.1196
 Red. Mass:       5.1988                 2.3682                 2.1638
 IR Intens:      104.466                 17.921                214.511
 Frequency:       313.22                 355.29                 371.63
 Force Cnst:      0.0896                 0.2629                 0.1507
 Red. Mass:       1.5502                 3.5354                 1.8521
 IR Intens:       72.506                 54.107                 61.559
 Frequency:       402.26                 431.83                 442.20
 Force Cnst:      0.3001                 0.8384                 0.1323
 Red. Mass:       3.1475                 7.6306                 1.1482
 IR Intens:       52.106                 35.145                 95.234
 Frequency:       462.98                 503.11                 522.81
 Force Cnst:      0.7012                 0.6749                 0.9810
 Red. Mass:       5.5519                 4.5254                 6.0913
 IR Intens:       65.365                 51.022                 65.022
 Frequency:       558.99                 602.21                 708.95
 Force Cnst:      0.5158                 1.2795                 1.2413
 Red. Mass:       2.8017                 5.9883                 4.1918
 IR Intens:       42.538                 71.080                 86.630
 Frequency:       743.24                 787.67                 839.38
 Force Cnst:      0.4022                 1.2980                 1.7613
 Red. Mass:       1.2357                 3.5508                 4.2428
 IR Intens:       58.723                492.823                 20.863
 Frequency:       902.06                 912.87                1008.89
 Force Cnst:      1.1607                 0.5539                 1.7496
 Red. Mass:       2.4210                 1.1281                 2.9175
 IR Intens:       16.956                133.670                 25.244
 Frequency:      1018.33                1051.43                1110.20
 Force Cnst:      3.3560                 2.4081                 1.9076
 Red. Mass:       5.4929                 3.6972                 2.6269
 IR Intens:       55.786                 27.833                176.275
 Frequency:      1179.42                1198.44                1228.28
 Force Cnst:      1.5027                 1.4804                 1.4334
 Red. Mass:       1.8335                 1.7494                 1.6126
 IR Intens:      117.545                586.279                139.979
 Frequency:      1245.86                1267.90                1290.46
 Force Cnst:      1.6761                 2.2489                 2.0513
 Red. Mass:       1.8328                 2.3743                 2.0907
 IR Intens:      247.566                 42.170                213.517
 Frequency:      1292.23                1312.78                1339.25
 Force Cnst:      6.8088                 1.4735                 1.9328
 Red. Mass:       6.9205                 1.4511                 1.8290
 IR Intens:       22.860                 70.565                 51.130
 Frequency:      1360.18                1379.78                1424.89
 Force Cnst:      2.2898                 1.7255                 1.6605
 Red. Mass:       2.1007                 1.5383                 1.3881
 IR Intens:      129.450                 62.715                 83.387
 Frequency:      1437.50                1445.70                1492.26
 Force Cnst:      1.6117                 1.3636                 2.6775
 Red. Mass:       1.3238                 1.1074                 2.0408
 IR Intens:       97.013                 37.223                 44.235
 Frequency:      1574.27                1628.27                2942.52
 Force Cnst:      1.6081                 1.6740                 5.4906
 Red. Mass:       1.1013                 1.0717                 1.0763
 IR Intens:      103.305                132.764               1611.619
 Frequency:      2984.03                3082.84                3121.14
 Force Cnst:      5.6844                 5.9534                 6.2449
 Red. Mass:       1.0835                 1.0632                 1.0881
 IR Intens:      256.169                 10.035                 27.098
 Frequency:      3143.25                3329.96                3783.55
 Force Cnst:      6.4106                 6.9727                 8.9885
 Red. Mass:       1.1013                 1.0673                 1.0657
 IR Intens:       12.398               1459.215                127.714
 Frequency:      3806.38                3825.52                3861.53
 Force Cnst:      9.1043                 9.1981                 9.3665
 Red. Mass:       1.0665                 1.0668                 1.0661
 IR Intens:      153.060                134.464                101.864

 STANDARD THERMODYNAMIC QUANTITIES AT   298.15 K  AND     1.00 ATM

   This Molecule has  0 Imaginary Frequencies
   Zero point vibrational energy:      105.159 kcal/mol

   Atom    1 Element C  Has Mass   12.00000
   Atom    2 Element O  Has Mass   15.99491
   Atom    3 Element C  Has Mass   12.00000
   Atom    4 Element O  Has Mass   15.99491
   Atom    5 Element C  Has Mass   12.00000
   Atom    6 Element C  Has Mass   12.00000
   Atom    7 Element O  Has Mass   15.99491
   Atom    8 Element H  Has Mass    1.00783
   Atom    9 Element H  Has Mass    1.00783
   Atom   10 Element H  Has Mass    1.00783
   Atom   11 Element H  Has Mass    1.00783
   Atom   12 Element H  Has Mass    1.00783
   Atom   13 Element O  Has Mass   15.99491
   Atom   14 Element H  Has Mass    1.00783
   Atom   15 Element O  Has Mass   15.99491
   Atom   16 Element O  Has Mass   15.99491
   Atom   17 Element H  Has Mass    1.00783
   Atom   18 Element H  Has Mass    1.00783
   Atom   19 Element O  Has Mass   15.99491
   Atom   20 Element O  Has Mass   15.99491
   Atom   21 Element H  Has Mass    1.00783
   Atom   22 Element O  Has Mass   15.99491
   Atom   23 Element H  Has Mass    1.00783
   Molecular Mass:   202.032490 amu
   Principal axes and moments of inertia in amu*Bohr^2:
                             1           2           3
    Eigenvalues --     1830.45480  3522.63419  4154.40352
          X               0.50956     0.74223    -0.43525
          Y               0.72543    -0.09856     0.68121
          Z               0.46271    -0.66286    -0.58866
   Rotational Symmetry Number is   1
   The Molecule is an Asymmetric Top
   Translational Enthalpy:        0.889 kcal/mol
   Rotational Enthalpy:           0.889 kcal/mol
   Vibrational Enthalpy:        113.380 kcal/mol
   gas constant (RT):             0.592 kcal/mol
   Translational Entropy:        41.814  cal/mol.K
   Rotational Entropy:           31.660  cal/mol.K
   Vibrational Entropy:          53.541  cal/mol.K

   Total Enthalpy:              115.750 kcal/mol
   Total Entropy:               127.015  cal/mol.K
 Total job time:  54956.23s(wall), 772038.15s(cpu)
        *  Thank you very much for using Q-Chem.  Have a nice day.  *
