 Q-Chem 5.4, Q-Chem, Inc., Pleasanton, CA (2021)
 Q-Chem 5.4.1 for Intel X86 EM64T Linux

User input:
--------------------------------------------------------------
$molecule
-1 2
C         2.8105330637   -0.9280112446   -1.1998412989
O         1.5676121963   -0.3405763080   -0.8755611112
C         3.6498069939   -0.8285868410    0.0828334868
O         3.0572793650   -1.6444046540    1.0739651234
C         3.8294882146    0.6112250614    0.5577462279
C         4.9618818014    0.7488813893    1.5784319285
O         6.2007234154    0.7747686547    1.0894597325
H         3.2956444387   -0.4067034666   -2.0300196906
H         1.0101574489   -0.3972538038   -1.6695316465
H         2.8813925211    0.9250630848    1.0044198680
H         4.0426849212    1.2731366333   -0.2878114812
H         4.8057122021    0.0716863836    2.4360534358
O         2.6678201941   -2.2681314045   -1.5960345595
H         2.4729303091   -2.7661870634   -0.7798288382
O         4.8882456632   -1.5107922299   -0.1051919149
O         5.7171157210   -0.7009930608   -0.9547844778
H         2.1333874324   -1.3455141445    1.1562766885
H         6.0890610674   -0.0789878859   -0.2390234246
O         4.7355221838    2.1313008346    2.2300054405
O         3.6804787089    2.1453784001    3.0025284027
H         6.2084996019    1.9974832610   -0.1654157418
O         6.1451823396    2.5788114554   -0.9661251191
H         5.9252881961    1.9364651486   -1.6587426304
$end

$rem
BASIS = 6-311++G(2df,2p)
GUI = 2
JOB_TYPE = Optimization
METHOD = wB97M-V
SCF_ALGORITHM = DIIS_GDM
MAX_SCF_CYCLES = 400
GEOM_OPT_MAX_CYCLES = 150
SCF_CONVERGENCE = 7
THRESH = 12
Solvent_method = SMD
$end
--------------------------------------------------------------

   22    -835.4799640252      6.01e-08  Convergence criterion met
 Total energy in the final basis set =     -835.4747460329
   19    -835.4811031183      7.44e-08  Convergence criterion met
 Total energy in the final basis set =     -835.4758023802
   20    -835.4787759317      8.61e-08  Convergence criterion met
 Total energy in the final basis set =     -835.4731582911
   21    -835.4805517236      5.00e-08  Convergence criterion met
 Total energy in the final basis set =     -835.4751220815
   19    -835.4737836270      7.61e-08  Convergence criterion met
 Total energy in the final basis set =     -835.4685929075
   21    -835.4812462596      4.53e-08  Convergence criterion met
 Total energy in the final basis set =     -835.4758425133
   20    -835.4799386828      6.41e-08  Convergence criterion met
 Total energy in the final basis set =     -835.4745528822
   20    -835.4818724708      8.35e-08  Convergence criterion met
   21    -835.4842441506      3.81e-08  Convergence criterion met
 Total energy in the final basis set =     -835.4788125473
   20    -835.4842501204      9.36e-08  Convergence criterion met
 Total energy in the final basis set =     -835.4788218135
   20    -835.4842520355      5.50e-08  Convergence criterion met
 Total energy in the final basis set =     -835.4788296845
   20    -835.4842544147      9.01e-08  Convergence criterion met
 Total energy in the final basis set =     -835.4788346276
   20    -835.4842564449      7.08e-08  Convergence criterion met
 Total energy in the final basis set =     -835.4788375220
   20    -835.4842589319      5.86e-08  Convergence criterion met
 Total energy in the final basis set =     -835.4788394484

             Standard Nuclear Orientation (Angstroms)
    I     Atom           X                Y                Z
 ----------------------------------------------------------------
    1      C       2.7737278708    -0.9941356229    -1.2296684053
    2      O       1.5661201678    -0.2939087776    -1.0478388830
    3      C       3.5640872768    -0.8841968918     0.0803697895
    4      O       2.8850540072    -1.6620343718     1.0236684204
    5      C       3.7487921949     0.5681571043     0.5087780432
    6      C       4.8547083179     0.7564209515     1.5446380311
    7      O       6.0967680773     0.7663639847     1.0769928278
    8      H       3.3581752614    -0.5600443915    -2.0387457175
    9      H       1.1522939703    -0.1826014687    -1.9111496123
   10      H       2.7957705481     0.9014173587     0.9140141571
   11      H       3.9844859065     1.1850652863    -0.3595260990
   12      H       4.6966682365     0.1362694371     2.4379815947
   13      O       2.5486140394    -2.3357380841    -1.5841842458
   14      H       2.1609503249    -2.7859882457    -0.8218620972
   15      O       4.8183074310    -1.5706234612    -0.0798020453
   16      O       5.6766474055    -0.7991425610    -0.9231003406
   17      H       3.2802807119    -1.5349902013     1.8951667694
   18      H       6.0195928996    -0.1375998318    -0.2453493188
   19      O       4.6038983238     2.1728585936     2.1217907883
   20      O       3.5734082181     2.2205271118     2.9102288299
   21      H       6.3012311819     1.9823136189    -0.1522094520
   22      O       6.4555870718     2.6474231566    -0.8637411313
   23      H       5.8612785564     2.3822455057    -1.5726435031
 ----------------------------------------------------------------

   20    -835.4842596216      6.36e-08  Convergence criterion met
 Total energy in the final basis set =     -835.4788402336
 Final energy is   -835.478840233591
 **  OPTIMIZATION CONVERGED  **

                    Orbital Energies (a.u.)
 --------------------------------------------------------------

 Alpha MOs
 -- Occupied --
-19.4384 -19.3997 -19.3936 -19.3714 -19.3568 -19.3457 -19.3446 -19.3130
-19.2762 -10.4604 -10.4448 -10.4342 -10.3369  -1.3216  -1.2649  -1.2072
 -1.1771  -1.1352  -1.1234  -1.1084  -1.0194  -0.9616  -0.8941  -0.8277
 -0.7450  -0.7129  -0.6860  -0.6503  -0.6429  -0.6332  -0.6186  -0.6067
 -0.5893  -0.5867  -0.5718  -0.5667  -0.5540  -0.5337  -0.5155  -0.5107
 -0.4928  -0.4771  -0.4713  -0.4539  -0.4414  -0.4283  -0.4173  -0.4148
 -0.4086  -0.3986  -0.3863  -0.3735  -0.3571  -0.3418

 Beta MOs
 -- Occupied --
-19.4267 -19.3936 -19.3821 -19.3714 -19.3567 -19.3457 -19.3446 -19.3130
-19.2763 -10.4604 -10.4448 -10.4345 -10.3367  -1.2943  -1.2649  -1.2072
 -1.1771  -1.1352  -1.1228  -1.1072  -1.0193  -0.9286  -0.8913  -0.8256
 -0.7427  -0.7083  -0.6858  -0.6460  -0.6395  -0.6283  -0.6146  -0.5934
 -0.5838  -0.5714  -0.5666  -0.5524  -0.5361  -0.5303  -0.5131  -0.5028
 -0.4805  -0.4766  -0.4681  -0.4536  -0.4413  -0.4279  -0.4168  -0.4083
 -0.4068  -0.3950  -0.3776  -0.3482  -0.3412

          Ground-State Mulliken Net Atomic Charges

     Atom                 Charge (a.u.)    Spin (a.u.)
  --------------------------------------------------------
      1 C                    -0.048661       0.000917
      2 O                    -0.414554       0.000006
      3 C                    -0.005140      -0.003276
      4 O                    -0.396045       0.000659
      5 C                    -0.477495       0.000332
      6 C                    -0.219798       0.007348
      7 O                    -0.715247      -0.002402
      8 H                     0.307326       0.000026
      9 H                     0.338053       0.000047
     10 H                     0.265243      -0.000197
     11 H                     0.346058      -0.002527
     12 H                     0.299346       0.006722
     13 O                    -0.459344       0.000145
     14 H                     0.347328      -0.000021
     15 O                    -0.193034       0.000068
     16 O                    -0.380895      -0.000053
     17 H                     0.344402      -0.000932
     18 H                     0.358490       0.000364
     19 O                     0.003295       0.362203
     20 O                    -0.276963       0.630216
     21 H                     0.411340       0.000344
     22 O                    -0.755143      -0.000083
     23 H                     0.321437       0.000094
  --------------------------------------------------------
  Sum of atomic charges =    -1.000000

                    Cartesian Multipole Moments
 -----------------------------------------------------------------
    Charge (ESU x 10^10)
                -4.8032
    Dipole Moment (Debye)
         X     -28.3238      Y      -4.3353      Z      -3.8816
       Tot      28.9154
    Quadrupole Moments (Debye-Ang)
        XX    -257.3477     XY     -29.3454     YY    -111.7013
        XZ     -12.0077     YZ     -19.9896     ZZ     -86.8556

 Total job time:  15827.98s(wall), 223071.89s(cpu)
        *  Thank you very much for using Q-Chem.  Have a nice day.  *
