 Q-Chem 5.4, Q-Chem, Inc., Pleasanton, CA (2021)
 Q-Chem 5.4.2 for Intel X86 EM64T Linux

User input:
--------------------------------------------------------------
$molecule
0 2
C         1.0554299636    0.3382882999   -0.2448816466
O         0.4490848495   -0.6868670757   -1.0092366110
C         2.5705277858    0.2675150609   -0.1888019124
O         3.1908899141    1.0715758214    0.4904232134
C         3.2545250900   -0.7960042163   -1.0119741170
C         4.7588060371   -0.7654302907   -0.8618131587
O         5.0423616730   -1.2062346415    0.4991773319
O         6.1387871611   -0.6639145006    0.9716036898
C         5.4768077905   -1.7148488342   -1.8223366762
O         5.2441897853   -1.1871595128   -3.1061506382
O         6.8471710273   -1.8253988600   -1.5289612828
H         0.6783875583    0.3718020935    0.7850933694
H         0.7997015513    1.2930569580   -0.7175573412
H         0.4771423719   -1.4998487491   -0.4797036639
H         2.9821991962   -0.6536945598   -2.0638105441
H         2.8596954038   -1.7805457397   -0.7291733456
H         5.1679425939    0.2437037781   -0.9600571749
H         5.0770714480   -2.7298790958   -1.7253932152
H         5.5272129761   -1.8600354620   -3.7475548080
H         7.2262858232   -0.9293524736   -1.5705483287
$end

$rem
BASIS = 6-311++G(2df,2p)
GUI = 2
JOB_TYPE = Optimization
METHOD = wB97M-V
SCF_ALGORITHM = DIIS_GDM
MAX_SCF_CYCLES = 400
GEOM_OPT_MAX_CYCLES = 150
SCF_CONVERGENCE = 7
THRESH = 12
Solvent_method = SMD
$end
--------------------------------------------------------------

   21    -647.2037647358      6.68e-08  Convergence criterion met
 Total energy in the final basis set =     -647.1972528523
   19    -647.2044729146      8.01e-08  Convergence criterion met
 Total energy in the final basis set =     -647.1979355522
   19    -647.2045162488      6.09e-08  Convergence criterion met
 Total energy in the final basis set =     -647.1979853920
   19    -647.2045158421      9.32e-08  Convergence criterion met
 Total energy in the final basis set =     -647.1979931136
   19    -647.2045309668      8.62e-08  Convergence criterion met
 Total energy in the final basis set =     -647.1980112903
   19    -647.2045400961      5.13e-08  Convergence criterion met
 Total energy in the final basis set =     -647.1980194978
   19    -647.2045426074      6.03e-08  Convergence criterion met
 Total energy in the final basis set =     -647.1980238608
   19    -647.2045439964      5.91e-08  Convergence criterion met
 Total energy in the final basis set =     -647.1980256118

             Standard Nuclear Orientation (Angstroms)
    I     Atom           X                Y                Z
 ----------------------------------------------------------------
    1      C       1.0660571488     0.3237733651    -0.2325855600
    2      O       0.4542957641    -0.6813138616    -1.0173527261
    3      C       2.5781629610     0.2872608125    -0.2171538741
    4      O       3.1870226054     1.1259783861     0.4206522509
    5      C       3.2687435449    -0.7840759424    -1.0114261882
    6      C       4.7689790185    -0.7600980837    -0.8625642275
    7      O       5.0515239238    -1.2052739763     0.4953712963
    8      O       6.0874048818    -0.6108432645     1.0149347645
    9      C       5.4697369349    -1.7163757806    -1.8248153092
   10      O       5.2558747581    -1.1829348814    -3.1084419619
   11      O       6.8375815243    -1.8501716714    -1.5327799864
   12      H       0.7257445879     0.2952847279     0.8048789827
   13      H       0.7766419401     1.2890307803    -0.6485619100
   14      H       0.4890151494    -1.5141220954    -0.5352659243
   15      H       2.9955334463    -0.6532232205    -2.0597162782
   16      H       2.8690032901    -1.7587673354    -0.7201859531
   17      H       5.1881490347     0.2399585763    -0.9642126926
   18      H       5.0514859113    -2.7197167659    -1.7416041604
   19      H       5.4622929584    -1.8656357292    -3.7570392154
   20      H       7.2409706161    -0.9720060399    -1.5237881869
 ----------------------------------------------------------------

   19    -647.2045452613      7.27e-08  Convergence criterion met
 Total energy in the final basis set =     -647.1980261223
 Final energy is   -647.198026122287
 **  OPTIMIZATION CONVERGED  **

                    Orbital Energies (a.u.)
 --------------------------------------------------------------

 Alpha MOs
 -- Occupied --
-19.4657 -19.4181 -19.3507 -19.3487 -19.3452 -19.3393 -10.4546 -10.4480
-10.4148 -10.3946 -10.3565  -1.3465  -1.2076  -1.1935  -1.1643  -1.1398
 -1.0312  -0.9090  -0.8564  -0.8195  -0.7503  -0.6880  -0.6766  -0.6579
 -0.6423  -0.6269  -0.6052  -0.5935  -0.5847  -0.5727  -0.5582  -0.5420
 -0.5343  -0.5223  -0.4928  -0.4758  -0.4514  -0.4470  -0.4416  -0.4257
 -0.4145  -0.4058  -0.3888  -0.3618

 Beta MOs
 -- Occupied --
-19.4553 -19.3994 -19.3506 -19.3486 -19.3452 -19.3393 -10.4543 -10.4480
-10.4151 -10.3946 -10.3564  -1.3204  -1.2072  -1.1935  -1.1643  -1.1396
 -1.0055  -0.8987  -0.8524  -0.8183  -0.7465  -0.6819  -0.6757  -0.6492
 -0.6208  -0.6188  -0.6029  -0.5835  -0.5793  -0.5614  -0.5478  -0.5414
 -0.5227  -0.5057  -0.4912  -0.4747  -0.4496  -0.4416  -0.4326  -0.4256
 -0.4114  -0.3868  -0.3617

          Ground-State Mulliken Net Atomic Charges

     Atom                 Charge (a.u.)    Spin (a.u.)
  --------------------------------------------------------
      1 C                    -0.232758       0.002278
      2 O                    -0.429360       0.000175
      3 C                     0.380200      -0.005767
      4 O                    -0.458525      -0.000204
      5 C                    -0.444629       0.007019
      6 C                    -0.088283       0.004473
      7 O                     0.113813       0.310861
      8 O                    -0.229502       0.669025
      9 C                    -0.324924       0.010440
     10 O                    -0.407525       0.001575
     11 O                    -0.462398      -0.000684
     12 H                     0.212828       0.000167
     13 H                     0.202832      -0.000100
     14 H                     0.340115       0.000026
     15 H                     0.236465       0.000648
     16 H                     0.264530      -0.000351
     17 H                     0.332290       0.000531
     18 H                     0.302677      -0.000623
     19 H                     0.337452       0.000529
     20 H                     0.354701      -0.000017
  --------------------------------------------------------
  Sum of atomic charges =     0.000000

                    Cartesian Multipole Moments
 -----------------------------------------------------------------
    Charge (ESU x 10^10)
                 0.0000
    Dipole Moment (Debye)
         X      -3.5313      Y      -3.3338      Z      -3.7277
       Tot       6.1221
    Quadrupole Moments (Debye-Ang)
        XX     -95.8721     XY      -4.9305     YY     -61.0393
        XZ     -25.5167     YZ       5.0713     ZZ     -62.9174

 Total job time:  1508.54s(wall), 21607.18s(cpu)
        *  Thank you very much for using Q-Chem.  Have a nice day.  *
