 Q-Chem 5.4, Q-Chem, Inc., Pleasanton, CA (2021)
 Q-Chem 5.4.1 for Intel X86 EM64T Linux

User input:
--------------------------------------------------------------
$molecule
0 2
O    3.3144360   -0.4231443   -0.9960496
C    2.3489315   -0.0816222   -0.0210037
C    2.8658574    0.7440000    1.1372957
O    2.0753089    1.1690272    2.0554884
C    4.3204049    0.9184994    1.3035078
C    4.8634098    1.9219705    1.9907172
C    4.1038730    3.0231800    2.6775300
O    3.5336183    2.5685578    3.8961351
O    5.0269596    4.0348888    2.9836044
H    3.8203457   -1.1796868   -0.6826920
H    1.8680891   -0.9671889    0.4018547
H    1.5758585    0.5100945   -0.5101370
H    4.9612823    0.1972485    0.8168494
H    5.9426711    1.9834128    2.0745388
H    3.3127570    3.4132702    2.0337115
H    2.7994680    1.9919530    3.6342002
H    4.5326188    4.8228986    3.2370310
O    2.7358365    2.0524003   -0.1466432
O    1.6962826    2.7161548    0.3154288
H    1.5435167    2.2064130    1.1847591
$end

$rem
BASIS = 6-311++G(2df,2p)
GUI = 2
JOB_TYPE = Frequency
METHOD = wB97M-V
SCF_ALGORITHM = DIIS_GDM
MAX_SCF_CYCLES = 400
SCF_CONVERGENCE = 6
THRESH = 11
solvent_method = SMD
$end

--------------------------------------------------------------

   20    -647.1333940082      6.87e-07  Convergence criterion met
 Total energy in the final basis set =     -647.1273910287
   17    -647.1333902771      4.61e-07  Convergence criterion met
 Total energy in the final basis set =     -647.1273879565
   17    -647.1333965439      4.55e-07  Convergence criterion met
 Total energy in the final basis set =     -647.1273927417
   17    -647.1334017208      4.62e-07  Convergence criterion met
 Total energy in the final basis set =     -647.1273977226
   17    -647.1333848286      4.56e-07  Convergence criterion met
 Total energy in the final basis set =     -647.1273828486
   17    -647.1334002547      4.59e-07  Convergence criterion met
 Total energy in the final basis set =     -647.1273958740
   17    -647.1333867423      4.63e-07  Convergence criterion met
 Total energy in the final basis set =     -647.1273849971
   17    -647.1333641561      4.52e-07  Convergence criterion met
 Frequency:      -153.82                 -50.31                  78.19
 Force Cnst:      0.1097                 0.0090                 0.0193
 Red. Mass:       7.8700                 6.0361                 5.3679
 IR Intens:       42.390                 10.317                  7.784
 Frequency:       110.02                 123.37                 184.90
 Force Cnst:      0.0330                 0.0562                 0.1391
 Red. Mass:       4.6308                 6.2698                 6.9058
 IR Intens:        3.789                  5.366                  2.551
 Frequency:       204.53                 231.28                 288.57
 Force Cnst:      0.1378                 0.1766                 0.0691
 Red. Mass:       5.5894                 5.6035                 1.4078
 IR Intens:       16.127                  5.130                166.790
 Frequency:       315.71                 363.81                 385.72
 Force Cnst:      0.1690                 0.0917                 0.2465
 Red. Mass:       2.8784                 1.1761                 2.8119
 IR Intens:      117.387                243.392                  2.346
 Frequency:       403.13                 455.57                 476.77
 Force Cnst:      0.3305                 0.3074                 0.4292
 Red. Mass:       3.4518                 2.5141                 3.2046
 IR Intens:        6.908                  7.169                 44.912
 Frequency:       483.59                 535.32                 560.67
 Force Cnst:      0.2953                 0.4190                 0.9125
 Red. Mass:       2.1432                 2.4817                 4.9269
 IR Intens:      132.403                173.389                 31.216
 Frequency:       603.77                 674.58                 730.04
 Force Cnst:      1.3203                 1.0461                 1.0120
 Red. Mass:       6.1471                 3.9018                 3.2229
 IR Intens:        8.856                 32.205                 80.205
 Frequency:       777.94                 840.20                 870.63
 Force Cnst:      0.7620                 0.5080                 1.8269
 Red. Mass:       2.1370                 1.2215                 4.0907
 IR Intens:       82.432                 49.307                 27.248
 Frequency:       986.82                1004.36                1027.81
 Force Cnst:      0.8355                 1.3519                 0.9166
 Red. Mass:       1.4562                 2.2746                 1.4727
 IR Intens:      120.320                 34.197                  6.784
 Frequency:      1086.25                1175.67                1189.99
 Force Cnst:      2.3898                 1.6323                 6.6170
 Red. Mass:       3.4376                 2.0044                 7.9310
 IR Intens:      125.331                378.367                104.910
 Frequency:      1196.70                1205.39                1233.99
 Force Cnst:      1.7648                 0.9854                 1.5522
 Red. Mass:       2.0916                 1.1511                 1.7301
 IR Intens:      150.082                 52.116                 47.293
 Frequency:      1249.67                1285.03                1331.08
 Force Cnst:      2.3815                 1.1768                 1.7325
 Red. Mass:       2.5883                 1.2096                 1.6596
 IR Intens:       85.184                127.349                218.177
 Frequency:      1355.12                1382.55                1403.71
 Force Cnst:      2.3202                 1.3922                 1.7397
 Red. Mass:       2.1445                 1.2362                 1.4986
 IR Intens:      176.165                 58.399                149.751
 Frequency:      1422.19                1455.58                1503.57
 Force Cnst:      1.8515                 2.0846                 2.1893
 Red. Mass:       1.5537                 1.6699                 1.6436
 IR Intens:       15.887                 38.393                135.159
 Frequency:      1535.65                1654.60                1731.22
 Force Cnst:      1.4935                 2.1739                12.8911
 Red. Mass:       1.0749                 1.3478                 7.3002
 IR Intens:       10.891                196.370                 25.737
 Frequency:      2721.82                3050.19                3070.43
 Force Cnst:      4.6970                 5.8233                 6.0244
 Red. Mass:       1.0761                 1.0624                 1.0846
 IR Intens:      595.505                 46.531                 45.704
 Frequency:      3103.64                3178.63                3216.63
 Force Cnst:      6.2572                 6.4842                 6.6637
 Red. Mass:       1.1025                 1.0892                 1.0931
 IR Intens:       18.174                  3.535                  2.759
 Frequency:      3708.78                3821.37                3840.60
 Force Cnst:      8.6298                 9.1766                 9.2736
 Red. Mass:       1.0649                 1.0666                 1.0671
 IR Intens:      333.420                142.966                151.692

 STANDARD THERMODYNAMIC QUANTITIES AT   298.15 K  AND     1.00 ATM

   This Molecule has  2 Imaginary Frequencies
   Zero point vibrational energy:       95.534 kcal/mol

   Atom    1 Element O  Has Mass   15.99491
   Atom    2 Element C  Has Mass   12.00000
   Atom    3 Element C  Has Mass   12.00000
   Atom    4 Element O  Has Mass   15.99491
   Atom    5 Element C  Has Mass   12.00000
   Atom    6 Element C  Has Mass   12.00000
   Atom    7 Element C  Has Mass   12.00000
   Atom    8 Element O  Has Mass   15.99491
   Atom    9 Element O  Has Mass   15.99491
   Atom   10 Element H  Has Mass    1.00783
   Atom   11 Element H  Has Mass    1.00783
   Atom   12 Element H  Has Mass    1.00783
   Atom   13 Element H  Has Mass    1.00783
   Atom   14 Element H  Has Mass    1.00783
   Atom   15 Element H  Has Mass    1.00783
   Atom   16 Element H  Has Mass    1.00783
   Atom   17 Element H  Has Mass    1.00783
   Atom   18 Element O  Has Mass   15.99491
   Atom   19 Element O  Has Mass   15.99491
   Atom   20 Element H  Has Mass    1.00783
   Molecular Mass:   165.039930 amu
   Principal axes and moments of inertia in amu*Bohr^2:
                             1           2           3
    Eigenvalues --      919.26043  2560.10302  2729.47211
          X               0.34945     0.85439    -0.38458
          Y               0.60721    -0.51911    -0.60151
          Z               0.71357     0.02333     0.70020
   Rotational Symmetry Number is   1
   The Molecule is an Asymmetric Top
   Translational Enthalpy:        0.889 kcal/mol
   Rotational Enthalpy:           0.889 kcal/mol
   Vibrational Enthalpy:        100.345 kcal/mol
   gas constant (RT):             0.592 kcal/mol
   Translational Entropy:        41.211  cal/mol.K
   Rotational Entropy:           30.241  cal/mol.K
   Vibrational Entropy:          28.043  cal/mol.K

   Total Enthalpy:              102.715 kcal/mol
   Total Entropy:                99.496  cal/mol.K
 Total job time:  27636.75s(wall), 390865.86s(cpu)
        *  Thank you very much for using Q-Chem.  Have a nice day.  *
 Q-Chem 5.4, Q-Chem, Inc., Pleasanton, CA (2021)
 Q-Chem 5.4.1 for Intel X86 EM64T Linux

User input:
--------------------------------------------------------------

$rem
JOBTYPE = ts
SCF_GUESS = read
GEOM_OPT_HESSIAN = read
MAX_SCF_CYCLES = 350
GEOM_OPT_DMAX = 60
GEOM_OPT_MAX_CYCLES = 250
METHOD = wB97M-v
BASIS = 6-311++G(2df,2p)
SCF_CONVERGENCE = 7
THRESH = 12
SCF_ALGORITHM = DIIS_GDM
solvent_method = SMD
$end

$molecule
read
$end
--------------------------------------------------------------

   19    -647.1609087785      8.55e-08  Convergence criterion met
 Total energy in the final basis set =     -647.1550589348
   18    -647.1608942088      7.51e-08  Convergence criterion met
 Total energy in the final basis set =     -647.1550482409
   19    -647.1608949243      9.98e-08  Convergence criterion met
 Total energy in the final basis set =     -647.1550438766
   20    -647.1609131043      6.52e-08  Convergence criterion met
 Total energy in the final basis set =     -647.1550582149
   20    -647.1609110262      7.02e-08  Convergence criterion met
 Total energy in the final basis set =     -647.1550616212
   20    -647.1609142372      7.59e-08  Convergence criterion met
 Total energy in the final basis set =     -647.1550637453

             Standard Nuclear Orientation (Angstroms)
    I     Atom           X                Y                Z
 ----------------------------------------------------------------
    1      O       3.1673488494    -0.4725215774    -1.0568733848
    2      C       2.3666860547    -0.2584387942     0.0894298439
    3      C       2.8383904479     0.8906443301     0.9486075881
    4      O       1.9738820930     1.3671341673     1.7859981795
    5      C       4.2862417414     1.0010956972     1.2218697178
    6      C       4.8484719131     1.9137090128     2.0088180397
    7      C       4.1359538968     3.0216577355     2.7360566688
    8      O       3.4778742489     2.5342882221     3.8975862431
    9      O       5.1169683039     3.9355996550     3.1510800769
   10      H       3.8905038961    -1.0656290127    -0.8305404046
   11      H       2.3370204806    -1.1432614651     0.7310006133
   12      H       1.3501248596    -0.0411184738    -0.2341446741
   13      H       4.9142384858     0.2612966446     0.7437504386
   14      H       5.9203952122     1.8778349323     2.1676846301
   15      H       3.4086124939     3.5178037280     2.0915001325
   16      H       2.7200708808     2.0244315813     3.5745166206
   17      H       4.6717536730     4.7375832262     3.4482054743
   18      O       2.6207309379     2.2767851841    -0.3731933682
   19      O       1.6617653276     2.9526079298     0.1403217557
   20      H       1.5344919034     2.2908244771     1.1444524088
 ----------------------------------------------------------------

   20    -647.1609149636      5.79e-08  Convergence criterion met
 Total energy in the final basis set =     -647.1550640310
 Final energy is   -647.155064031019
 **  OPTIMIZATION CONVERGED  **

                    Orbital Energies (a.u.)
 --------------------------------------------------------------

 Alpha MOs
 -- Occupied --
-19.4501 -19.4470 -19.3488 -19.3465 -19.3465 -19.3390 -10.4689 -10.4505
-10.3965 -10.3642 -10.3570  -1.3625  -1.2025  -1.1916  -1.1656  -1.1332
 -0.9808  -0.9309  -0.8627  -0.8064  -0.7377  -0.7157  -0.6715  -0.6554
 -0.6392  -0.6360  -0.6299  -0.6179  -0.5964  -0.5836  -0.5488  -0.5271
 -0.5125  -0.4991  -0.4896  -0.4770  -0.4625  -0.4409  -0.4305  -0.4267
 -0.4104  -0.3938  -0.3739  -0.3663

 Beta MOs
 -- Occupied --
-19.4335 -19.4328 -19.3488 -19.3465 -19.3465 -19.3390 -10.4693 -10.4505
-10.3964 -10.3642 -10.3568  -1.3342  -1.2024  -1.1908  -1.1656  -1.1332
 -0.9525  -0.9208  -0.8596  -0.8063  -0.7371  -0.7070  -0.6698  -0.6546
 -0.6373  -0.6351  -0.6030  -0.5985  -0.5828  -0.5558  -0.5315  -0.5260
 -0.5118  -0.4967  -0.4864  -0.4758  -0.4582  -0.4383  -0.4295  -0.4178
 -0.3985  -0.3771  -0.3597

          Ground-State Mulliken Net Atomic Charges

     Atom                 Charge (a.u.)    Spin (a.u.)
  --------------------------------------------------------
      1 O                    -0.424416       0.001359
      2 C                    -0.252421       0.010131
      3 C                     0.141373      -0.027803
      4 O                    -0.451852      -0.001577
      5 C                    -0.256338       0.007449
      6 C                     0.013773      -0.008567
      7 C                    -0.379833       0.003152
      8 O                    -0.444773      -0.000368
      9 O                    -0.452165      -0.000113
     10 H                     0.340272       0.000215
     11 H                     0.218158      -0.000914
     12 H                     0.220094      -0.000639
     13 H                     0.285925       0.000700
     14 H                     0.283312       0.000337
     15 H                     0.266765      -0.002245
     16 H                     0.348902       0.000703
     17 H                     0.333949       0.000034
     18 O                    -0.055174       0.550491
     19 O                    -0.102245       0.476792
     20 H                     0.366695      -0.009136
  --------------------------------------------------------
  Sum of atomic charges =     0.000000

                    Cartesian Multipole Moments
 -----------------------------------------------------------------
    Charge (ESU x 10^10)
                 0.0000
    Dipole Moment (Debye)
         X      -0.3888      Y      -2.8502      Z      -0.6129
       Tot       2.9411
    Quadrupole Moments (Debye-Ang)
        XX     -67.9659     XY     -15.0229     YY     -60.6086
        XZ      -8.9550     YZ      -1.5871     ZZ     -87.2696

 Total job time:  12652.68s(wall), 178753.30s(cpu)
        *  Thank you very much for using Q-Chem.  Have a nice day.  *
