 Q-Chem 5.4, Q-Chem, Inc., Pleasanton, CA (2021)
 Q-Chem 5.4.1 for Intel X86 EM64T Linux

User input:
--------------------------------------------------------------
$molecule
0 2
O        -0.5921887758    0.6936896813   -0.3740698093
C         0.1824855854   -0.0727174748    0.4845230576
O        -0.5786650749   -1.0080553970    1.1773101025
C         1.3038082779   -0.7511859747   -0.2914248640
O         1.9195515478    0.0680267437   -1.1248918041
O         1.6011925155   -1.9079094429   -0.1015800482
H        -1.1608161461    1.2680809042    0.1543233303
H        -0.0638787065   -1.8270314328    1.2422095056
H         2.6434119606   -0.4065503710   -1.5659144707
H         0.6954520649    0.6266519764    1.2385000497
O         1.4519736508    1.5029811507    2.2341021136
H         2.2174146435    0.8870225142    2.2836774882
C         2.8785841961   -1.5703139843    2.4696195637
O         3.4364754048   -0.5163201383    2.2496577401
H         1.8402854724   -1.6037728606    2.8248659563
H         3.3984236837   -2.5255428941    2.3297838888
$end

$rem
BASIS = 6-311++G(2df,2p)
GUI = 2
JOB_TYPE = Frequency
METHOD = wB97M-V
SOLVENT_METHOD = SMD
SCF_ALGORITHM = DIIS_GDM
MAX_SCF_CYCLES = 400
SCF_CONVERGENCE = 7
THRESH = 12
$end

--------------------------------------------------------------

   24    -569.8369681316      5.98e-08  Convergence criterion met
 Total energy in the final basis set =     -569.8266047291
   21    -569.8369731018      7.94e-08  Convergence criterion met
 Total energy in the final basis set =     -569.8266041666
   21    -569.8369619855      8.46e-08  Convergence criterion met
 Total energy in the final basis set =     -569.8266041008
   21    -569.8369619659      7.90e-08  Convergence criterion met
 Total energy in the final basis set =     -569.8266041265
   21    -569.8369730921      8.34e-08  Convergence criterion met
 Total energy in the final basis set =     -569.8266041112
   21    -569.8369735980      8.03e-08  Convergence criterion met
 Total energy in the final basis set =     -569.8266040500
   21    -569.8369613343      8.40e-08  Convergence criterion met
 Total energy in the final basis set =     -569.8266040576
   21    -569.8369558095      8.41e-08  Convergence criterion met
 Frequency:      -409.27                  29.45                  50.81
 Force Cnst:      0.4652                 0.0040                 0.0114
 Red. Mass:       4.7135                 7.9041                 7.4994
 IR Intens:      809.248                  5.358                  2.988
 Frequency:        67.06                  77.97                  84.84
 Force Cnst:      0.0226                 0.0136                 0.0290
 Red. Mass:       8.5217                 3.7983                 6.8278
 IR Intens:       18.576                 15.530                  5.937
 Frequency:       106.30                 136.39                 187.60
 Force Cnst:      0.0346                 0.0354                 0.1466
 Red. Mass:       5.2040                 3.2331                 7.0688
 IR Intens:       21.915                 66.136                 23.682
 Frequency:       228.21                 232.32                 267.21
 Force Cnst:      0.0367                 0.0459                 0.1250
 Red. Mass:       1.1968                 1.4430                 2.9725
 IR Intens:      270.518                107.858                  6.214
 Frequency:       292.78                 364.32                 472.40
 Force Cnst:      0.0591                 0.2631                 0.5124
 Red. Mass:       1.1697                 3.3642                 3.8971
 IR Intens:       12.448                 27.386                 13.505
 Frequency:       542.58                 559.01                 585.67
 Force Cnst:      0.4426                 0.1973                 0.6841
 Red. Mass:       2.5517                 1.0718                 3.3851
 IR Intens:       63.353                155.998                 69.210
 Frequency:       623.41                 758.42                 836.29
 Force Cnst:      0.4424                 1.1409                 0.5153
 Red. Mass:       1.9322                 3.3665                 1.2505
 IR Intens:      109.506                 47.100                185.391
 Frequency:       895.41                1100.37                1152.82
 Force Cnst:      1.6742                 3.0797                 2.7710
 Red. Mass:       3.5441                 4.3170                 3.5389
 IR Intens:       74.509                761.114               1052.943
 Frequency:      1189.21                1234.83                1236.86
 Force Cnst:      1.7439                 0.9715                 1.2097
 Red. Mass:       2.0929                 1.0814                 1.3421
 IR Intens:      143.236                230.162                  5.826
 Frequency:      1258.64                1283.07                1288.68
 Force Cnst:      1.2512                 1.1222                 1.5445
 Red. Mass:       1.3406                 1.1570                 1.5786
 IR Intens:       27.105                 45.928                110.284
 Frequency:      1369.12                1473.58                1508.32
 Force Cnst:      2.0251                 2.2420                 1.5031
 Red. Mass:       1.8336                 1.7524                 1.1214
 IR Intens:      123.082                606.518                 37.320
 Frequency:      1656.62                1763.91                1764.92
 Force Cnst:      2.1066                12.5695                15.9923
 Red. Mass:       1.3028                 6.8567                 8.7138
 IR Intens:     3777.695                135.134                781.863
 Frequency:      2990.93                3087.46                3485.12
 Force Cnst:      5.5210                 6.3030                 7.6555
 Red. Mass:       1.0475                 1.1223                 1.0698
 IR Intens:       60.033                 58.262                729.818
 Frequency:      3730.33                3735.27                3802.80
 Force Cnst:      8.7311                 8.7572                 9.0862
 Red. Mass:       1.0649                 1.0653                 1.0664
 IR Intens:      234.950                254.630                163.386

 STANDARD THERMODYNAMIC QUANTITIES AT   298.15 K  AND     1.00 ATM

   This Molecule has  1 Imaginary Frequencies
   Zero point vibrational energy:       67.921 kcal/mol

   Atom    1 Element O  Has Mass   15.99491
   Atom    2 Element C  Has Mass   12.00000
   Atom    3 Element O  Has Mass   15.99491
   Atom    4 Element C  Has Mass   12.00000
   Atom    5 Element O  Has Mass   15.99491
   Atom    6 Element O  Has Mass   15.99491
   Atom    7 Element H  Has Mass    1.00783
   Atom    8 Element H  Has Mass    1.00783
   Atom    9 Element H  Has Mass    1.00783
   Atom   10 Element H  Has Mass    1.00783
   Atom   11 Element O  Has Mass   15.99491
   Atom   12 Element H  Has Mass    1.00783
   Atom   13 Element C  Has Mass   12.00000
   Atom   14 Element O  Has Mass   15.99491
   Atom   15 Element H  Has Mass    1.00783
   Atom   16 Element H  Has Mass    1.00783
   Molecular Mass:   139.024270 amu
   Principal axes and moments of inertia in amu*Bohr^2:
                             1           2           3
    Eigenvalues --     1053.00958  1639.91832  1863.29784
          X               0.76371    -0.32870     0.55561
          Y              -0.20690     0.69064     0.69297
          Z               0.61150     0.64418    -0.45945
   Rotational Symmetry Number is   1
   The Molecule is an Asymmetric Top
   Translational Enthalpy:        0.889 kcal/mol
   Rotational Enthalpy:           0.889 kcal/mol
   Vibrational Enthalpy:         73.944 kcal/mol
   gas constant (RT):             0.592 kcal/mol
   Translational Entropy:        40.700  cal/mol.K
   Rotational Entropy:           29.555  cal/mol.K
   Vibrational Entropy:          42.621  cal/mol.K

   Total Enthalpy:               76.314 kcal/mol
   Total Entropy:               112.875  cal/mol.K
 Total job time:  14243.85s(wall), 199969.88s(cpu)
        *  Thank you very much for using Q-Chem.  Have a nice day.  *
 Q-Chem 5.4, Q-Chem, Inc., Pleasanton, CA (2021)
 Q-Chem 5.4.1 for Intel X86 EM64T Linux

User input:
--------------------------------------------------------------

$molecule
read
$end

$rem
JOBTYPE            rpath
SCF_GUESS          read
RPATH_MAX_CYCLES   30
BASIS = 6-311++G(2df,2p)
METHOD = wB97M-V
SOLVENT_METHOD = SMD
SCF_ALGORITHM = DIIS_GDM
SCF_CONVERGENCE = 7
THRESH = 12
$end
--------------------------------------------------------------

 Total energy in the final basis set =     -569.8901751863
   17    -569.9023716697      4.14e-08  Convergence criterion met
 Total energy in the final basis set =     -569.8908812870
   16    -569.8987595714      6.14e-08  Convergence criterion met
 Total energy in the final basis set =     -569.8872418598
   17    -569.9024220176      4.51e-08  Convergence criterion met
 Total energy in the final basis set =     -569.8909270787
   17    -569.8974792505      2.93e-08  Convergence criterion met
 Total energy in the final basis set =     -569.8859428830
   17    -569.9024690817      5.10e-08  Convergence criterion met
 Total energy in the final basis set =     -569.8909697876
   17    -569.9024615902      4.52e-08  Convergence criterion met
 Total energy in the final basis set =     -569.8909656575
   17    -569.9024758927      4.67e-08  Convergence criterion met
 Total energy in the final basis set =     -569.8909780603

                    Orbital Energies (a.u.)
 --------------------------------------------------------------

 Alpha MOs
 -- Occupied --
-19.3987 -19.3982 -19.3799 -19.3557 -19.3289 -19.3254 -10.4873 -10.4828
-10.4404  -1.2745  -1.2328  -1.2009  -1.1982  -1.1481  -1.1326  -0.8795
 -0.7547  -0.7503  -0.7021  -0.6813  -0.6433  -0.6221  -0.6100  -0.5982
 -0.5721  -0.5516  -0.5465  -0.5363  -0.5194  -0.5107  -0.5004  -0.4886
 -0.4456  -0.4259  -0.4116  -0.3822  -0.2796

 Beta MOs
 -- Occupied --
-19.3954 -19.3949 -19.3787 -19.3556 -19.3252 -19.3239 -10.4813 -10.4794
-10.4404  -1.2665  -1.2283  -1.1982  -1.1936  -1.1408  -1.1322  -0.8621
 -0.7504  -0.7483  -0.6965  -0.6756  -0.6397  -0.6091  -0.6054  -0.5888
 -0.5704  -0.5422  -0.5388  -0.5265  -0.5160  -0.5064  -0.4983  -0.4627
 -0.4258  -0.4215  -0.4052  -0.3821

          Ground-State Mulliken Net Atomic Charges

     Atom                 Charge (a.u.)    Spin (a.u.)
  --------------------------------------------------------
      1 O                    -0.309660       0.090460
      2 C                    -0.049096       0.483452
      3 O                    -0.293732       0.095724
      4 C                     0.361828       0.113354
      5 O                    -0.318459       0.037986
      6 O                    -0.533466       0.172847
      7 H                     0.375068       0.001306
      8 H                     0.346856      -0.002118
      9 H                     0.354705      -0.000515
     10 H                     0.431273      -0.003971
     11 O                    -0.726438       0.008708
     12 H                     0.327636      -0.000177
     13 C                    -0.062088       0.000473
     14 O                    -0.293368       0.002356
     15 H                     0.206002       0.000266
     16 H                     0.182939      -0.000149
  --------------------------------------------------------
  Sum of atomic charges =     0.000000

                    Cartesian Multipole Moments
 -----------------------------------------------------------------
    Charge (ESU x 10^10)
                 0.0000
    Dipole Moment (Debye)
         X      -2.9583      Y      -4.0928      Z       0.2620
       Tot       5.0568
    Quadrupole Moments (Debye-Ang)
        XX     -56.4781     XY     -10.2594     YY     -56.5627
        XZ      -5.6411     YZ     -13.3913     ZZ     -53.4675

             Standard Nuclear Orientation (Angstroms)
    I     Atom           X                Y                Z
 ----------------------------------------------------------------
    1      O      -0.5921887758     0.6936896813    -0.3740698093
    2      C       0.1824855854    -0.0727174748     0.4845230576
    3      O      -0.5786650749    -1.0080553970     1.1773101025
    4      C       1.3038082779    -0.7511859747    -0.2914248640
    5      O       1.9195515478     0.0680267437    -1.1248918041
    6      O       1.6011925155    -1.9079094429    -0.1015800482
    7      H      -1.1608161461     1.2680809042     0.1543233303
    8      H      -0.0638787065    -1.8270314328     1.2422095056
    9      H       2.6434119606    -0.4065503710    -1.5659144707
   10      H       0.6954520649     0.6266519764     1.2385000497
   11      O       1.4519736508     1.5029811507     2.2341021136
   12      H       2.2174146435     0.8870225142     2.2836774882
   13      C       2.8785841961    -1.5703139843     2.4696195637
   14      O       3.4364754048    -0.5163201383     2.2496577401
   15      H       1.8402854724    -1.6037728606     2.8248659563
   16      H       3.3984236837    -2.5255428941     2.3297838888
 ----------------------------------------------------------------

 Total job time:  9147.35s(wall), 128180.02s(cpu)
        *  Thank you very much for using Q-Chem.  Have a nice day.  *
