 Q-Chem 5.4, Q-Chem, Inc., Pleasanton, CA (2021)
 Q-Chem 5.4.1 for Intel X86 EM64T Linux

User input:
--------------------------------------------------------------
$molecule
0 2
O   -0.4162773    0.8544182   -0.3866292
C    0.0467450   -0.0942186    0.5171860
O   -0.9525514   -0.9618692    0.9417596
C    1.2051058   -0.8642346   -0.1028035
O    2.1159958   -0.0695234   -0.6373704
O    1.2683001   -2.0699360   -0.0539652
H   -1.0030840    1.4642517    0.0779213
H   -0.6183844   -1.8683932    0.8534628
H    2.8605395   -0.6196527   -0.9555190
H    0.4796439    0.4391967    1.4329344
O    1.3338375    1.1011110    2.5376360
H    2.1145466    1.2334192    1.9718453
C    3.1770415   -1.4338796    2.2639867
O    3.7111515   -0.4557031    1.7774824
H    2.2181908   -1.3626210    2.8032803
H    3.6327094   -2.4353124    2.1894843
$end

$rem
BASIS = 6-311++G(2df,2p)
GUI = 2
JOB_TYPE = Frequency
METHOD = wB97M-V
SCF_ALGORITHM = DIIS_GDM
MAX_SCF_CYCLES = 400
SCF_CONVERGENCE = 6
THRESH = 11
solvent_method = SMD
$end

--------------------------------------------------------------

   21    -569.8326683870      7.04e-07  Convergence criterion met
 Total energy in the final basis set =     -569.8220751011
   18    -569.8326707353      8.00e-07  Convergence criterion met
 Total energy in the final basis set =     -569.8220742206
   18    -569.8326650022      9.15e-07  Convergence criterion met
 Total energy in the final basis set =     -569.8220749399
   18    -569.8326609121      7.94e-07  Convergence criterion met
 Total energy in the final basis set =     -569.8220743449
   18    -569.8326744177      8.33e-07  Convergence criterion met
 Total energy in the final basis set =     -569.8220743704
   18    -569.8326734057      7.66e-07  Convergence criterion met
 Total energy in the final basis set =     -569.8220737712
   16    -569.8326621539      9.76e-07  Convergence criterion met
 Total energy in the final basis set =     -569.8220751789
   18    -569.8326575477      7.14e-07  Convergence criterion met
 Frequency:      -372.61                -263.47                  33.98
 Force Cnst:      0.3155                 0.0453                 0.0054
 Red. Mass:       3.8566                 1.1065                 7.9831
 IR Intens:      588.473                281.530                  2.285
 Frequency:        50.87                  60.62                  79.59
 Force Cnst:      0.0087                 0.0177                 0.0278
 Red. Mass:       5.7356                 8.1562                 7.4516
 IR Intens:        7.388                  2.061                 10.049
 Frequency:       118.61                 154.98                 160.76
 Force Cnst:      0.0480                 0.0628                 0.0764
 Red. Mass:       5.7871                 4.4372                 5.0191
 IR Intens:        6.844                 36.051                 24.647
 Frequency:       204.85                 214.24                 252.13
 Force Cnst:      0.0287                 0.0886                 0.0392
 Red. Mass:       1.1618                 3.2777                 1.0461
 IR Intens:      306.509                 14.406                  0.485
 Frequency:       258.69                 267.22                 356.98
 Force Cnst:      0.0586                 0.1676                 0.3008
 Red. Mass:       1.4871                 3.9841                 4.0066
 IR Intens:       96.512                 20.352                 17.779
 Frequency:       468.24                 565.26                 584.35
 Force Cnst:      0.6422                 0.7455                 0.6826
 Red. Mass:       4.9716                 3.9602                 3.3929
 IR Intens:       10.712                 19.981                 32.673
 Frequency:       672.05                 702.70                 775.02
 Force Cnst:      0.3724                 0.3665                 1.3289
 Red. Mass:       1.3993                 1.2597                 3.7550
 IR Intens:      133.678                142.094                193.064
 Frequency:       896.79                1113.34                1160.57
 Force Cnst:      1.8274                 2.6320                 2.9526
 Red. Mass:       3.8567                 3.6041                 3.7206
 IR Intens:       79.641                796.770               1002.187
 Frequency:      1175.75                1219.37                1237.51
 Force Cnst:      1.0406                 1.8033                 1.2204
 Red. Mass:       1.2776                 2.0585                 1.3525
 IR Intens:      165.817                 21.082                  9.003
 Frequency:      1255.67                1276.60                1321.27
 Force Cnst:      1.2333                 1.3607                 1.1666
 Red. Mass:       1.3276                 1.4171                 1.1342
 IR Intens:       16.813                127.730                287.281
 Frequency:      1367.91                1475.25                1504.95
 Force Cnst:      1.8718                 2.6417                 1.5188
 Red. Mass:       1.6978                 2.0602                 1.1382
 IR Intens:       96.470                253.511                 44.755
 Frequency:      1742.95                1768.21                1843.75
 Force Cnst:     11.0023                16.4657                 2.3562
 Red. Mass:       6.1470                 8.9384                 1.1764
 IR Intens:      166.449               1103.639               3281.393
 Frequency:      2946.14                3031.67                3635.89
 Force Cnst:      5.3525                 6.0709                 8.2915
 Red. Mass:       1.0466                 1.1211                 1.0645
 IR Intens:       67.276                 66.182                235.992
 Frequency:      3718.30                3727.12                3806.70
 Force Cnst:      8.6774                 8.7323                 9.1048
 Red. Mass:       1.0652                 1.0669                 1.0664
 IR Intens:      252.057                179.687                169.246

 STANDARD THERMODYNAMIC QUANTITIES AT   298.15 K  AND     1.00 ATM

   This Molecule has  2 Imaginary Frequencies
   Zero point vibrational energy:       67.486 kcal/mol

   Atom    1 Element O  Has Mass   15.99491
   Atom    2 Element C  Has Mass   12.00000
   Atom    3 Element O  Has Mass   15.99491
   Atom    4 Element C  Has Mass   12.00000
   Atom    5 Element O  Has Mass   15.99491
   Atom    6 Element O  Has Mass   15.99491
   Atom    7 Element H  Has Mass    1.00783
   Atom    8 Element H  Has Mass    1.00783
   Atom    9 Element H  Has Mass    1.00783
   Atom   10 Element H  Has Mass    1.00783
   Atom   11 Element O  Has Mass   15.99491
   Atom   12 Element H  Has Mass    1.00783
   Atom   13 Element C  Has Mass   12.00000
   Atom   14 Element O  Has Mass   15.99491
   Atom   15 Element H  Has Mass    1.00783
   Atom   16 Element H  Has Mass    1.00783
   Molecular Mass:   139.024270 amu
   Principal axes and moments of inertia in amu*Bohr^2:
                             1           2           3
    Eigenvalues --      969.26349  1667.72730  1894.70236
          X               0.89146    -0.19107     0.41084
          Y              -0.15529     0.72299     0.67318
          Z               0.42565     0.66392    -0.61485
   Rotational Symmetry Number is   1
   The Molecule is an Asymmetric Top
   Translational Enthalpy:        0.889 kcal/mol
   Rotational Enthalpy:           0.889 kcal/mol
   Vibrational Enthalpy:         73.283 kcal/mol
   gas constant (RT):             0.592 kcal/mol
   Translational Entropy:        40.700  cal/mol.K
   Rotational Entropy:           29.505  cal/mol.K
   Vibrational Entropy:          40.327  cal/mol.K

   Total Enthalpy:               75.653 kcal/mol
   Total Entropy:               110.532  cal/mol.K
 Total job time:  11973.92s(wall), 168247.29s(cpu)
        *  Thank you very much for using Q-Chem.  Have a nice day.  *
 Q-Chem 5.4, Q-Chem, Inc., Pleasanton, CA (2021)
 Q-Chem 5.4.1 for Intel X86 EM64T Linux

User input:
--------------------------------------------------------------

$rem
JOBTYPE = ts
SCF_GUESS = read
GEOM_OPT_HESSIAN = read
MAX_SCF_CYCLES = 350
GEOM_OPT_DMAX = 60
GEOM_OPT_MAX_CYCLES = 250
METHOD = wB97M-v
BASIS = 6-311++G(2df,2p)
SCF_CONVERGENCE = 7
THRESH = 12
SCF_ALGORITHM = DIIS_GDM
solvent_method = SMD
$end

$molecule
read
$end
--------------------------------------------------------------

   21    -569.8369838324      6.96e-08  Convergence criterion met
 Total energy in the final basis set =     -569.8266023232
   21    -569.8369945244      6.55e-08  Convergence criterion met
 Total energy in the final basis set =     -569.8266012487
   21    -569.8369673599      7.42e-08  Convergence criterion met
 Total energy in the final basis set =     -569.8266039733
   21    -569.8369887821      7.51e-08  Convergence criterion met
 Total energy in the final basis set =     -569.8266016029
   21    -569.8369788800      6.82e-08  Convergence criterion met
 Total energy in the final basis set =     -569.8266007196
   21    -569.8369734861      7.03e-08  Convergence criterion met
 Total energy in the final basis set =     -569.8266041440

             Standard Nuclear Orientation (Angstroms)
    I     Atom           X                Y                Z
 ----------------------------------------------------------------
    1      O      -0.5921887758     0.6936896813    -0.3740698093
    2      C       0.1824855854    -0.0727174748     0.4845230576
    3      O      -0.5786650749    -1.0080553970     1.1773101025
    4      C       1.3038082779    -0.7511859747    -0.2914248640
    5      O       1.9195515478     0.0680267437    -1.1248918041
    6      O       1.6011925155    -1.9079094429    -0.1015800482
    7      H      -1.1608161461     1.2680809042     0.1543233303
    8      H      -0.0638787065    -1.8270314328     1.2422095056
    9      H       2.6434119606    -0.4065503710    -1.5659144707
   10      H       0.6954520649     0.6266519764     1.2385000497
   11      O       1.4519736508     1.5029811507     2.2341021136
   12      H       2.2174146435     0.8870225142     2.2836774882
   13      C       2.8785841961    -1.5703139843     2.4696195637
   14      O       3.4364754048    -0.5163201383     2.2496577401
   15      H       1.8402854724    -1.6037728606     2.8248659563
   16      H       3.3984236837    -2.5255428941     2.3297838888
 ----------------------------------------------------------------

   21    -569.8369681316      8.36e-08  Convergence criterion met
 Total energy in the final basis set =     -569.8266047291
 Final energy is   -569.826604729140
 **  OPTIMIZATION CONVERGED  **

                    Orbital Energies (a.u.)
 --------------------------------------------------------------

 Alpha MOs
 -- Occupied --
-19.3987 -19.3740 -19.3660 -19.3613 -19.3598 -19.3520 -10.5044 -10.4797
-10.4426  -1.2700  -1.2212  -1.2018  -1.1814  -1.1535  -1.1228  -0.8653
 -0.7529  -0.7490  -0.6845  -0.6748  -0.6468  -0.6206  -0.6162  -0.5897
 -0.5740  -0.5546  -0.5471  -0.5289  -0.5162  -0.5012  -0.4929  -0.4539
 -0.4480  -0.4402  -0.4232  -0.3861  -0.3795

 Beta MOs
 -- Occupied --
-19.3986 -19.3652 -19.3602 -19.3599 -19.3533 -19.3517 -10.5043 -10.4758
-10.4426  -1.2695  -1.2187  -1.2017  -1.1806  -1.1515  -1.0688  -0.8603
 -0.7527  -0.7453  -0.6804  -0.6678  -0.6406  -0.6172  -0.6123  -0.5862
 -0.5705  -0.5465  -0.5370  -0.5200  -0.5154  -0.4912  -0.4522  -0.4402
 -0.4289  -0.4190  -0.4033  -0.3845

          Ground-State Mulliken Net Atomic Charges

     Atom                 Charge (a.u.)    Spin (a.u.)
  --------------------------------------------------------
      1 O                    -0.366244       0.026985
      2 C                    -0.322243       0.180677
      3 O                    -0.353386       0.036503
      4 C                     0.331340      -0.004548
      5 O                    -0.249892       0.001248
      6 O                    -0.429354       0.010884
      7 H                     0.347152      -0.000131
      8 H                     0.321527       0.001293
      9 H                     0.362431       0.000152
     10 H                     0.478821      -0.036409
     11 O                    -0.495751       0.792904
     12 H                     0.322860      -0.008040
     13 C                    -0.066992      -0.000357
     14 O                    -0.282726      -0.000459
     15 H                     0.217330      -0.000624
     16 H                     0.185127      -0.000080
  --------------------------------------------------------
  Sum of atomic charges =     0.000000

                    Cartesian Multipole Moments
 -----------------------------------------------------------------
    Charge (ESU x 10^10)
                 0.0000
    Dipole Moment (Debye)
         X       1.4059      Y      -3.6260      Z       0.1591
       Tot       3.8923
    Quadrupole Moments (Debye-Ang)
        XX     -51.2470     XY     -11.9537     YY     -52.7546
        XZ      -2.5257     YZ     -10.4491     ZZ     -50.2986

 Total job time:  10964.80s(wall), 155099.79s(cpu)
        *  Thank you very much for using Q-Chem.  Have a nice day.  *
