 Q-Chem 5.4, Q-Chem, Inc., Pleasanton, CA (2021)
 Q-Chem 5.4.2 for Intel X86 EM64T Linux

User input:
--------------------------------------------------------------
$molecule
0 1
H        -0.4490077689   -0.1954725624    1.5869302786
C        -0.2357269497    0.7443865731    1.0926092196
C        -1.1582782074    1.7045161843    1.0664649921
H        -2.1028951860    1.5628637793    1.5770265813
C        -1.0137061159    2.9875675837    0.3527368378
H        -0.2343301186    3.0671195745   -0.4126681275
C         1.0978091162    0.8499218405    0.4530494462
C         1.6921717346   -0.4289824194   -0.0629329205
O         1.7117974766    1.8975046854    0.3558536323
O        -1.7562780241    3.9248790565    0.5779947930
O         2.9440229668   -0.2114718826   -0.6746517761
H         0.9895972431   -0.8772074613   -0.7709264113
H         1.7812049548   -1.1167982730    0.7840300735
H         3.1556190784    0.7260621214   -0.5517893190
$end

$rem
BASIS = 6-311++G(2df,2p)
GUI = 2
JOB_TYPE = Frequency
METHOD = wB97M-V
SOLVENT_METHOD = SMD
SCF_ALGORITHM = DIIS_GDM
MAX_SCF_CYCLES = 400
SCF_CONVERGENCE = 7
THRESH = 12
$end
--------------------------------------------------------------

   16    -419.7908815339      6.67e-08  Convergence criterion met
 Total energy in the final basis set =     -419.7827510646
   15    -419.7908814257      7.24e-08  Convergence criterion met
 Total energy in the final basis set =     -419.7827509520
   15    -419.7908814139      7.29e-08  Convergence criterion met
 Total energy in the final basis set =     -419.7827509464
   15    -419.7908807764      7.25e-08  Convergence criterion met
 Total energy in the final basis set =     -419.7827506018
   15    -419.7908812960      7.22e-08  Convergence criterion met
 Total energy in the final basis set =     -419.7827505306
   15    -419.7908815164      7.26e-08  Convergence criterion met
 Total energy in the final basis set =     -419.7827508834
   15    -419.7908812023      7.20e-08  Convergence criterion met
 Total energy in the final basis set =     -419.7827508960
   15    -419.7908801948      7.37e-08  Convergence criterion met
 Total energy in the final basis set =     -419.7827506497
   15    -419.7908807914      7.21e-08  Convergence criterion met
 Total energy in the final basis set =     -419.7827507209
   15    -419.7908820545      7.28e-08  Convergence criterion met
 Total energy in the final basis set =     -419.7827508385
   15    -419.7908807503      7.26e-08  Convergence criterion met
 Total energy in the final basis set =     -419.7827510273
   15    -419.7908808241      7.26e-08  Convergence criterion met
 Total energy in the final basis set =     -419.7827501122
   15    -419.7908805960      7.27e-08  Convergence criterion met
 Total energy in the final basis set =     -419.7827503698
   15    -419.7908811631      7.26e-08  Convergence criterion met
 Total energy in the final basis set =     -419.7827509866
   15    -419.7908818270      7.25e-08  Convergence criterion met
 Total energy in the final basis set =     -419.7827510646

                    Orbital Energies (a.u.)
 --------------------------------------------------------------

 Alpha MOs
 -- Occupied --
-19.3530 -19.3480 -19.3430 -10.4581 -10.4452 -10.3976 -10.3773 -10.3727
 -1.2100  -1.1930  -1.1585  -0.9481  -0.8683  -0.7824  -0.7179  -0.6753
 -0.6364  -0.6122  -0.5980  -0.5842  -0.5510  -0.5470  -0.5225  -0.5137
 -0.5012  -0.4803  -0.4052  -0.3964  -0.3897  -0.3744

          Ground-State Mulliken Net Atomic Charges

     Atom                 Charge (a.u.)
  ----------------------------------------
      1 H                     0.293444
      2 C                    -0.076920
      3 C                     0.029529
      4 H                     0.282238
      5 C                    -0.108037
      6 H                     0.215574
      7 C                     0.292512
      8 C                    -0.410535
      9 O                    -0.428098
     10 O                    -0.403441
     11 O                    -0.434840
     12 H                     0.204453
     13 H                     0.207198
     14 H                     0.336923
  ----------------------------------------
  Sum of atomic charges =     0.000000

                    Cartesian Multipole Moments
 -----------------------------------------------------------------
    Charge (ESU x 10^10)
                 0.0000
    Dipole Moment (Debye)
         X      -1.2783      Y      -5.3474      Z       1.1333
       Tot       5.6137
    Quadrupole Moments (Debye-Ang)
        XX     -59.7835     XY       9.4122     YY     -71.6127
        XZ       2.8443     YZ      -6.6884     ZZ     -45.7923

             Standard Nuclear Orientation (Angstroms)
    I     Atom           X                Y                Z
 ----------------------------------------------------------------
    1      H      -0.4490077689    -0.1954725624     1.5869302786
    2      C      -0.2357269497     0.7443865731     1.0926092196
    3      C      -1.1582782074     1.7045161843     1.0664649921
    4      H      -2.1028951860     1.5628637793     1.5770265813
    5      C      -1.0137061159     2.9875675837     0.3527368378
    6      H      -0.2343301186     3.0671195745    -0.4126681275
    7      C       1.0978091162     0.8499218405     0.4530494462
    8      C       1.6921717346    -0.4289824194    -0.0629329205
    9      O       1.7117974766     1.8975046854     0.3558536323
   10      O      -1.7562780241     3.9248790565     0.5779947930
   11      O       2.9440229668    -0.2114718826    -0.6746517761
   12      H       0.9895972431    -0.8772074613    -0.7709264113
   13      H       1.7812049548    -1.1167982730     0.7840300735
   14      H       3.1556190784     0.7260621214    -0.5517893190
 ----------------------------------------------------------------

 Frequency:        34.81                  74.32                 108.77
 Force Cnst:      0.0053                 0.0174                 0.0177
 Red. Mass:       7.4450                 5.3358                 2.5442
 IR Intens:        6.703                 10.446                 42.473
 Frequency:       176.69                 218.86                 260.22
 Force Cnst:      0.0658                 0.0354                 0.1492
 Red. Mass:       3.5800                 1.2555                 3.7400
 IR Intens:        2.384                144.527                 18.241
 Frequency:       313.64                 348.58                 420.38
 Force Cnst:      0.1759                 0.4022                 0.4777
 Red. Mass:       3.0350                 5.6184                 4.5876
 IR Intens:       30.116                 35.368                 13.108
 Frequency:       524.50                 614.62                 713.79
 Force Cnst:      0.3727                 0.9068                 0.6898
 Red. Mass:       2.2993                 4.0744                 2.2979
 IR Intens:       11.551                 13.998                 55.306
 Frequency:       766.25                 892.14                1002.51
 Force Cnst:      0.6434                 2.0206                 1.2737
 Red. Mass:       1.8599                 4.3088                 2.1510
 IR Intens:       51.358                 17.105                 42.468
 Frequency:      1030.95                1047.37                1095.85
 Force Cnst:      0.8958                 1.0464                 1.7962
 Red. Mass:       1.4306                 1.6189                 2.5386
 IR Intens:        9.967                  3.275                 98.231
 Frequency:      1127.93                1219.07                1235.59
 Force Cnst:      3.2835                 1.0298                 1.1657
 Red. Mass:       4.3805                 1.1761                 1.2960
 IR Intens:      241.576                 27.613                214.636
 Frequency:      1290.76                1354.19                1387.14
 Force Cnst:      1.0881                 2.1853                 1.4699
 Red. Mass:       1.1085                 2.0225                 1.2965
 IR Intens:       17.907                 13.143                 63.924
 Frequency:      1427.76                1442.90                1506.79
 Force Cnst:      1.5517                 1.7008                 2.3006
 Red. Mass:       1.2920                 1.3866                 1.7198
 IR Intens:       48.733                 48.962                 29.353
 Frequency:      1704.30                1743.26                1745.82
 Force Cnst:     16.2635                14.8955                17.2022
 Red. Mass:       9.5033                 8.3192                 9.5793
 IR Intens:      303.040                558.599                208.892
 Frequency:      3044.07                3062.31                3078.47
 Force Cnst:      5.7875                 6.0100                 6.1578
 Red. Mass:       1.0601                 1.0877                 1.1028
 IR Intens:       41.890                 34.608                  8.581
 Frequency:      3187.02                3202.26                3721.03
 Force Cnst:      6.5018                 6.6308                 8.6931
 Red. Mass:       1.0865                 1.0975                 1.0656
 IR Intens:        0.802                  0.489                176.489

 STANDARD THERMODYNAMIC QUANTITIES AT   298.15 K  AND     1.00 ATM

   This Molecule has  0 Imaginary Frequencies
   Zero point vibrational energy:       65.939 kcal/mol

   Atom    1 Element H  Has Mass    1.00783
   Atom    2 Element C  Has Mass   12.00000
   Atom    3 Element C  Has Mass   12.00000
   Atom    4 Element H  Has Mass    1.00783
   Atom    5 Element C  Has Mass   12.00000
   Atom    6 Element H  Has Mass    1.00783
   Atom    7 Element C  Has Mass   12.00000
   Atom    8 Element C  Has Mass   12.00000
   Atom    9 Element O  Has Mass   15.99491
   Atom   10 Element O  Has Mass   15.99491
   Atom   11 Element O  Has Mass   15.99491
   Atom   12 Element H  Has Mass    1.00783
   Atom   13 Element H  Has Mass    1.00783
   Atom   14 Element H  Has Mass    1.00783
   Molecular Mass:   114.031710 amu
   Principal axes and moments of inertia in amu*Bohr^2:
                             1           2           3
    Eigenvalues --      305.90690  1844.65985  2060.30753
          X               0.74937     0.53801     0.38599
          Y              -0.63609     0.74684     0.19394
          Z              -0.18393    -0.39086     0.90189
   Rotational Symmetry Number is   1
   The Molecule is an Asymmetric Top
   Translational Enthalpy:        0.889 kcal/mol
   Rotational Enthalpy:           0.889 kcal/mol
   Vibrational Enthalpy:         69.621 kcal/mol
   gas constant (RT):             0.592 kcal/mol
   Translational Entropy:        40.109  cal/mol.K
   Rotational Entropy:           28.543  cal/mol.K
   Vibrational Entropy:          24.525  cal/mol.K

   Total Enthalpy:               71.991 kcal/mol
   Total Entropy:                93.177  cal/mol.K
 Total job time:  8418.63s(wall), 81257.22s(cpu)
        *  Thank you very much for using Q-Chem.  Have a nice day.  *
