 Q-Chem 5.4, Q-Chem, Inc., Pleasanton, CA (2021)
 Q-Chem 5.4.1 for Intel X86 EM64T Linux

User input:
--------------------------------------------------------------
$molecule
0 1
H        -0.4984461422   -0.2244667788    1.4483606230
C        -0.2572167555    0.7390497697    1.0045989647
C        -1.1637996632    1.7240870699    1.0471050439
H        -2.1132397099    1.5583015364    1.5514445616
C        -1.0222435105    3.0625732558    0.4271451736
H        -0.1830368253    3.2302733690   -0.2617555030
C         1.0788627104    0.8305539377    0.3635180787
C         1.7389603208   -0.4752553488   -0.0099277187
O         1.6634384357    1.8849280712    0.1467605202
O        -1.8324668890    3.9465159014    0.6590098978
O         2.9792963727   -0.2530447514   -0.6423961490
H         1.0586004398   -1.0353307975   -0.6665842064
H         1.8566338969   -1.0668625003    0.9105172851
H         3.1166575192    0.7135660658   -0.6040692713
$end

$rem
BASIS = 6-311++G(2df,2p)
GUI = 2
JOB_TYPE = Optimization
METHOD = wB97M-V
SCF_ALGORITHM = DIIS_GDM
MAX_SCF_CYCLES = 400
GEOM_OPT_MAX_CYCLES = 150
SCF_CONVERGENCE = 7
THRESH = 12
Solvent_method = SMD
$end
--------------------------------------------------------------

   16    -419.7901311468      6.48e-08  Convergence criterion met
 Total energy in the final basis set =     -419.7819724178
   15    -419.7906665214      7.72e-08  Convergence criterion met
 Total energy in the final basis set =     -419.7825096107
   15    -419.7905882920      8.25e-08  Convergence criterion met
 Total energy in the final basis set =     -419.7824384570
   15    -419.7907558829      5.89e-08  Convergence criterion met
 Total energy in the final basis set =     -419.7826162421
   15    -419.7905282842      6.60e-08  Convergence criterion met
 Total energy in the final basis set =     -419.7823715239
   15    -419.7908792036      5.75e-08  Convergence criterion met
 Total energy in the final basis set =     -419.7827361479
   15    -419.7908787233      6.75e-08  Convergence criterion met
 Total energy in the final basis set =     -419.7827454947
   15    -419.7908832746      6.87e-08  Convergence criterion met
 Total energy in the final basis set =     -419.7827505268

             Standard Nuclear Orientation (Angstroms)
    I     Atom           X                Y                Z
 ----------------------------------------------------------------
    1      H      -0.4490077689    -0.1954725624     1.5869302786
    2      C      -0.2357269497     0.7443865731     1.0926092196
    3      C      -1.1582782074     1.7045161843     1.0664649921
    4      H      -2.1028951860     1.5628637793     1.5770265813
    5      C      -1.0137061159     2.9875675837     0.3527368378
    6      H      -0.2343301186     3.0671195745    -0.4126681275
    7      C       1.0978091162     0.8499218405     0.4530494462
    8      C       1.6921717346    -0.4289824194    -0.0629329205
    9      O       1.7117974766     1.8975046854     0.3558536323
   10      O      -1.7562780241     3.9248790565     0.5779947930
   11      O       2.9440229668    -0.2114718826    -0.6746517761
   12      H       0.9895972431    -0.8772074613    -0.7709264113
   13      H       1.7812049548    -1.1167982730     0.7840300735
   14      H       3.1556190784     0.7260621214    -0.5517893190
 ----------------------------------------------------------------

   15    -419.7908815344      6.59e-08  Convergence criterion met
 Total energy in the final basis set =     -419.7827510651
 Final energy is   -419.782751065116
 **  OPTIMIZATION CONVERGED  **

                    Orbital Energies (a.u.)
 --------------------------------------------------------------

 Alpha MOs
 -- Occupied --
-19.3530 -19.3480 -19.3431 -10.4581 -10.4452 -10.3975 -10.3773 -10.3727
 -1.2100  -1.1930  -1.1585  -0.9481  -0.8683  -0.7824  -0.7179  -0.6753
 -0.6365  -0.6122  -0.5980  -0.5842  -0.5510  -0.5470  -0.5225  -0.5137
 -0.5012  -0.4803  -0.4052  -0.3964  -0.3897  -0.3744

          Ground-State Mulliken Net Atomic Charges

     Atom                 Charge (a.u.)
  ----------------------------------------
      1 H                     0.293454
      2 C                    -0.076950
      3 C                     0.029529
      4 H                     0.282242
      5 C                    -0.108033
      6 H                     0.215577
      7 C                     0.292520
      8 C                    -0.410567
      9 O                    -0.428059
     10 O                    -0.403436
     11 O                    -0.434831
     12 H                     0.204435
     13 H                     0.207198
     14 H                     0.336921
  ----------------------------------------
  Sum of atomic charges =     0.000000

                    Cartesian Multipole Moments
 -----------------------------------------------------------------
    Charge (ESU x 10^10)
                -0.0000
    Dipole Moment (Debye)
         X      -1.2785      Y      -5.3474      Z       1.1352
       Tot       5.6141
    Quadrupole Moments (Debye-Ang)
        XX     -59.7833     XY       9.4113     YY     -71.6122
        XZ       2.8507     YZ      -6.6857     ZZ     -45.7944

 Total job time:  714.13s(wall), 10058.90s(cpu)
        *  Thank you very much for using Q-Chem.  Have a nice day.  *
