 Q-Chem 5.4, Q-Chem, Inc., Pleasanton, CA (2021)
 Q-Chem 5.4.1 for Intel X86 EM64T Linux

User input:
--------------------------------------------------------------
$molecule
0 2
C         0.9575543508    0.0630275269   -1.0186033935
O         1.1826766902    1.3709075328   -0.4575272313
O         0.0025554246    1.6644977930    0.3493286879
C        -0.5508724494    0.0954893375   -1.2609691175
C        -0.9366581026    0.7541457492    0.0267791143
C        -0.5808220408   -0.8819405893    1.5225329375
O        -1.5981069274   -1.5915667271    1.5758127926
C         0.6990976350   -1.4322286665    0.9757024414
C         1.3830120288   -1.0386899037   -0.0918356525
H         1.5289827942    0.0664912190   -1.9424259433
H        -0.7668430366    0.7729192243   -2.0923236379
H        -1.9320622090    1.0332215614    0.3434719797
H        -0.4880012539   -0.0137331687    2.1875136977
H         1.0753544910   -2.2646257403    1.5635108090
H         2.3042605793   -1.5483684985   -0.3408290218
O        -1.1121460809   -1.1726929908   -1.4851441138
H        -1.8490400932   -1.0699737592   -2.0960434485
$end

$rem
BASIS = 6-311++G(2df,2p)
GUI = 2
JOB_TYPE = Frequency
METHOD = wB97M-V
SOLVENT_METHOD = SMD
SCF_ALGORITHM = DIIS_GDM
MAX_SCF_CYCLES = 400
SCF_CONVERGENCE = 7
THRESH = 12
$end

--------------------------------------------------------------

   19    -533.5592965141      9.42e-08  Convergence criterion met
 Total energy in the final basis set =     -533.5528888464
   18    -533.5592956815      9.61e-08  Convergence criterion met
 Total energy in the final basis set =     -533.5528878781
   18    -533.5592954376      9.59e-08  Convergence criterion met
 Total energy in the final basis set =     -533.5528879017
   18    -533.5592962223      9.60e-08  Convergence criterion met
 Total energy in the final basis set =     -533.5528880842
   18    -533.5592953123      9.68e-08  Convergence criterion met
 Total energy in the final basis set =     -533.5528881122
   18    -533.5592952169      9.64e-08  Convergence criterion met
 Total energy in the final basis set =     -533.5528878160
   18    -533.5592957509      9.54e-08  Convergence criterion met
 Total energy in the final basis set =     -533.5528878124
   18    -533.5592958214      9.65e-08  Convergence criterion met
 Frequency:      -118.54                  71.92                  97.45
 Force Cnst:      0.0497                 0.0040                 0.0239
 Red. Mass:       6.0024                 1.3148                 4.2643
 IR Intens:       25.282                201.739                 50.187
 Frequency:       170.97                 207.63                 258.05
 Force Cnst:      0.1042                 0.2186                 0.2043
 Red. Mass:       6.0489                 8.6045                 5.2072
 IR Intens:       12.440                  7.476                 13.877
 Frequency:       306.70                 324.13                 406.91
 Force Cnst:      0.2410                 0.3965                 0.2715
 Red. Mass:       4.3477                 6.4057                 2.7836
 IR Intens:        6.567                112.036                  3.160
 Frequency:       442.81                 544.06                 586.52
 Force Cnst:      0.4919                 0.8344                 0.7565
 Red. Mass:       4.2579                 4.7845                 3.7325
 IR Intens:       10.863                  5.900                 10.422
 Frequency:       628.01                 715.12                 746.00
 Force Cnst:      1.0075                 0.7852                 0.5217
 Red. Mass:       4.3356                 2.6061                 1.5912
 IR Intens:        6.258                 24.546                 26.876
 Frequency:       808.75                 831.53                 840.40
 Force Cnst:      1.1875                 1.3308                 1.3552
 Red. Mass:       3.0813                 3.2667                 3.2567
 IR Intens:       26.355                 26.789                 61.153
 Frequency:       911.76                 946.56                 973.85
 Force Cnst:      1.4178                 1.4154                 1.5801
 Red. Mass:       2.8946                 2.6812                 2.8277
 IR Intens:        4.669                 18.553                 89.098
 Frequency:      1012.99                1020.62                1035.90
 Force Cnst:      1.3006                 0.9637                 1.1582
 Red. Mass:       2.1512                 1.5702                 1.8318
 IR Intens:      158.469                  3.720                 53.714
 Frequency:      1103.79                1127.56                1194.50
 Force Cnst:      1.0602                 2.5153                 1.0229
 Red. Mass:       1.4769                 3.3578                 1.2168
 IR Intens:        5.056                139.503                 13.356
 Frequency:      1228.71                1273.49                1275.06
 Force Cnst:      1.0219                 1.4056                 3.2525
 Red. Mass:       1.1488                 1.4710                 3.3955
 IR Intens:        4.364                 24.010                260.064
 Frequency:      1289.21                1320.47                1360.29
 Force Cnst:      1.4390                 1.7516                 1.4498
 Red. Mass:       1.4695                 1.7050                 1.3299
 IR Intens:       26.395                 18.723                  2.701
 Frequency:      1378.75                1409.70                1460.74
 Force Cnst:      1.4844                 1.9650                 2.4014
 Red. Mass:       1.3254                 1.6783                 1.9102
 IR Intens:       59.095                 11.443                 75.824
 Frequency:      1564.73                1732.67                3010.74
 Force Cnst:      9.5442                13.5681                 5.7883
 Red. Mass:       6.6162                 7.6708                 1.0838
 IR Intens:      658.083                  3.185                 73.760
 Frequency:      3050.61                3151.05                3152.80
 Force Cnst:      5.9431                 6.3626                 6.3698
 Red. Mass:       1.0839                 1.0876                 1.0876
 IR Intens:       16.791                  0.546                  9.123
 Frequency:      3198.41                3222.28                3843.62
 Force Cnst:      6.5947                 6.6879                 9.2891
 Red. Mass:       1.0942                 1.0932                 1.0672
 IR Intens:        8.254                  9.605                183.157

 STANDARD THERMODYNAMIC QUANTITIES AT   298.15 K  AND     1.00 ATM

   This Molecule has  1 Imaginary Frequencies
   Zero point vibrational energy:       78.966 kcal/mol

   Atom    1 Element C  Has Mass   12.00000
   Atom    2 Element O  Has Mass   15.99491
   Atom    3 Element O  Has Mass   15.99491
   Atom    4 Element C  Has Mass   12.00000
   Atom    5 Element C  Has Mass   12.00000
   Atom    6 Element C  Has Mass   12.00000
   Atom    7 Element O  Has Mass   15.99491
   Atom    8 Element C  Has Mass   12.00000
   Atom    9 Element C  Has Mass   12.00000
   Atom   10 Element H  Has Mass    1.00783
   Atom   11 Element H  Has Mass    1.00783
   Atom   12 Element H  Has Mass    1.00783
   Atom   13 Element H  Has Mass    1.00783
   Atom   14 Element H  Has Mass    1.00783
   Atom   15 Element H  Has Mass    1.00783
   Atom   16 Element O  Has Mass   15.99491
   Atom   17 Element H  Has Mass    1.00783
   Molecular Mass:   143.034450 amu
   Principal axes and moments of inertia in amu*Bohr^2:
                             1           2           3
    Eigenvalues --      933.72218  1381.87578  1425.79916
          X               0.46015     0.49706     0.73565
          Y               0.71333     0.28634    -0.63966
          Z              -0.52860     0.81911    -0.22281
   Rotational Symmetry Number is   1
   The Molecule is an Asymmetric Top
   Translational Enthalpy:        0.889 kcal/mol
   Rotational Enthalpy:           0.889 kcal/mol
   Vibrational Enthalpy:         82.642 kcal/mol
   gas constant (RT):             0.592 kcal/mol
   Translational Entropy:        40.785  cal/mol.K
   Rotational Entropy:           28.999  cal/mol.K
   Vibrational Entropy:          21.737  cal/mol.K

   Total Enthalpy:               85.012 kcal/mol
   Total Entropy:                91.521  cal/mol.K
 Total job time:  21452.61s(wall), 307605.48s(cpu)
        *  Thank you very much for using Q-Chem.  Have a nice day.  *
 Q-Chem 5.4, Q-Chem, Inc., Pleasanton, CA (2021)
 Q-Chem 5.4.1 for Intel X86 EM64T Linux

User input:
--------------------------------------------------------------

$molecule
read
$end

$rem
JOBTYPE            rpath
SCF_GUESS          read
RPATH_MAX_CYCLES   30
BASIS = 6-311++G(2df,2p)
METHOD = wB97M-V
SOLVENT_METHOD = SMD
SCF_ALGORITHM = DIIS_GDM
SCF_CONVERGENCE = 7
THRESH = 12
$end
--------------------------------------------------------------

 Total energy in the final basis set =     -533.5528888467
   18    -533.5592719943      6.03e-08  Convergence criterion met
 Total energy in the final basis set =     -533.5529508727
   19    -533.5578018404      6.71e-08  Convergence criterion met
 Total energy in the final basis set =     -533.5515415680
   18    -533.5592710233      8.04e-08  Convergence criterion met
 Total energy in the final basis set =     -533.5529512002
   20    -533.5585838060      8.18e-08  Convergence criterion met
 Total energy in the final basis set =     -533.5523131020
   18    -533.5592684624      5.95e-08  Convergence criterion met
 Total energy in the final basis set =     -533.5529577207
   19    -533.5592597802      8.04e-08  Convergence criterion met
 Total energy in the final basis set =     -533.5529500728
   19    -533.5592725542      8.86e-08  Convergence criterion met
 Total energy in the final basis set =     -533.5529631416

                    Orbital Energies (a.u.)
 --------------------------------------------------------------

 Alpha MOs
 -- Occupied --
-19.4473 -19.4209 -19.3546 -19.3241 -10.4328 -10.4307 -10.4229 -10.4160
-10.3559 -10.3536  -1.3107  -1.1802  -1.1632  -1.1020  -0.9557  -0.8960
 -0.8060  -0.7647  -0.7337  -0.6913  -0.6698  -0.6469  -0.6082  -0.5932
 -0.5775  -0.5663  -0.5511  -0.5365  -0.5308  -0.5114  -0.4986  -0.4744
 -0.4685  -0.4188  -0.3957  -0.3761  -0.3663  -0.2960

 Beta MOs
 -- Occupied --
-19.4426 -19.4210 -19.3546 -19.3171 -10.4311 -10.4243 -10.4230 -10.4158
-10.3558 -10.3535  -1.3049  -1.1796  -1.1518  -1.0972  -0.9519  -0.8919
 -0.8000  -0.7573  -0.7259  -0.6843  -0.6652  -0.6442  -0.6016  -0.5871
 -0.5739  -0.5592  -0.5394  -0.5277  -0.5214  -0.5065  -0.4963  -0.4695
 -0.4406  -0.4139  -0.3878  -0.3745  -0.3590

          Ground-State Mulliken Net Atomic Charges

     Atom                 Charge (a.u.)    Spin (a.u.)
  --------------------------------------------------------
      1 C                    -0.083494      -0.008188
      2 O                    -0.119181      -0.001971
      3 O                    -0.004648       0.124134
      4 C                    -0.026350       0.005134
      5 C                    -0.311069       0.530228
      6 C                    -0.211186       0.066803
      7 O                    -0.468945       0.244988
      8 C                    -0.058944      -0.025087
      9 C                    -0.345027       0.028079
     10 H                     0.290690      -0.001856
     11 H                     0.265588       0.026762
     12 H                     0.321895      -0.007110
     13 H                     0.230418       0.011341
     14 H                     0.277160       0.003007
     15 H                     0.301806       0.000338
     16 O                    -0.413259       0.003669
     17 H                     0.354547      -0.000270
  --------------------------------------------------------
  Sum of atomic charges =     0.000000

                    Cartesian Multipole Moments
 -----------------------------------------------------------------
    Charge (ESU x 10^10)
                 0.0000
    Dipole Moment (Debye)
         X       1.1309      Y       2.7450      Z      -4.7891
       Tot       5.6347
    Quadrupole Moments (Debye-Ang)
        XX     -56.6107     XY     -13.4255     YY     -69.2105
        XZ       8.1413     YZ       2.4549     ZZ     -51.0854

             Standard Nuclear Orientation (Angstroms)
    I     Atom           X                Y                Z
 ----------------------------------------------------------------
    1      C       0.9575543508     0.0630275269    -1.0186033935
    2      O       1.1826766902     1.3709075328    -0.4575272313
    3      O       0.0025554246     1.6644977930     0.3493286879
    4      C      -0.5508724494     0.0954893375    -1.2609691175
    5      C      -0.9366581026     0.7541457492     0.0267791143
    6      C      -0.5808220408    -0.8819405893     1.5225329375
    7      O      -1.5981069274    -1.5915667271     1.5758127926
    8      C       0.6990976350    -1.4322286665     0.9757024414
    9      C       1.3830120288    -1.0386899037    -0.0918356525
   10      H       1.5289827942     0.0664912190    -1.9424259433
   11      H      -0.7668430366     0.7729192243    -2.0923236379
   12      H      -1.9320622090     1.0332215614     0.3434719797
   13      H      -0.4880012539    -0.0137331687     2.1875136977
   14      H       1.0753544910    -2.2646257403     1.5635108090
   15      H       2.3042605793    -1.5483684985    -0.3408290218
   16      O      -1.1121460809    -1.1726929908    -1.4851441138
   17      H      -1.8490400932    -1.0699737592    -2.0960434485
 ----------------------------------------------------------------

 Total job time:  3372.05s(wall), 48425.26s(cpu)
        *  Thank you very much for using Q-Chem.  Have a nice day.  *
