 Q-Chem 5.4, Q-Chem, Inc., Pleasanton, CA (2021)
 Q-Chem 5.4.1 for Intel X86 EM64T Linux

User input:
--------------------------------------------------------------
$molecule
0 2
C    0.9705001    0.0856606   -1.0563043
O    1.2579310    1.3850663   -0.4880120
O    0.1203325    1.6803422    0.3596400
C   -0.5312075    0.1405299   -1.2556348
C   -0.8655567    0.8151943    0.0343694
C   -0.6787086   -0.9137247    1.3522288
O   -1.6988030   -1.5957311    1.1427064
C    0.6678026   -1.4104839    0.9198684
C    1.3921764   -1.0073377   -0.1152515
H    1.5166822    0.0685488   -1.9953610
H   -0.7857264    0.7834832   -2.0985057
H   -1.8439616    1.1503969    0.3496474
H   -0.6741946   -0.1756153    2.1656331
H    1.0502750   -2.1984683    1.5619721
H    2.3577931   -1.4590795   -0.2993349
O   -0.9901599   -1.2746911   -1.3464022
H   -1.9462328   -1.2672107   -1.4723083
$end

$rem
BASIS = 6-311++G(2df,2p)
GUI = 2
JOB_TYPE = Frequency
METHOD = wB97M-V
SCF_ALGORITHM = DIIS_GDM
MAX_SCF_CYCLES = 400
SCF_CONVERGENCE = 6
THRESH = 11
solvent_method = SMD
$end

--------------------------------------------------------------

   16    -533.5469714382      9.70e-07  Convergence criterion met
 Total energy in the final basis set =     -533.5408920051
   16    -533.5469830827      6.50e-07  Convergence criterion met
 Total energy in the final basis set =     -533.5409034737
   16    -533.5469578140      6.50e-07  Convergence criterion met
 Total energy in the final basis set =     -533.5408785528
   16    -533.5469756583      6.48e-07  Convergence criterion met
 Total energy in the final basis set =     -533.5408957647
   16    -533.5469657501      6.54e-07  Convergence criterion met
 Total energy in the final basis set =     -533.5408867747
   16    -533.5469703147      6.47e-07  Convergence criterion met
 Total energy in the final basis set =     -533.5408911626
   16    -533.5469704712      6.51e-07  Convergence criterion met
 Total energy in the final basis set =     -533.5408907530
   16    -533.5469699779      6.49e-07  Convergence criterion met
 Frequency:      -177.86                -158.48                 147.23
 Force Cnst:      0.0414                 0.0250                 0.0595
 Red. Mass:       2.2198                 1.6914                 4.6569
 IR Intens:       59.309                214.044                  3.946
 Frequency:       214.65                 230.81                 294.49
 Force Cnst:      0.1764                 0.2436                 0.3204
 Red. Mass:       6.4999                 7.7620                 6.2710
 IR Intens:       15.883                  3.798                 14.451
 Frequency:       326.74                 342.99                 397.89
 Force Cnst:      0.4169                 0.3440                 0.2719
 Red. Mass:       6.6282                 4.9627                 2.9149
 IR Intens:       68.492                 25.930                 15.807
 Frequency:       469.35                 516.25                 580.35
 Force Cnst:      0.5334                 1.0644                 0.8711
 Red. Mass:       4.1099                 6.7785                 4.3895
 IR Intens:        5.892                  9.569                 15.313
 Frequency:       632.97                 731.97                 766.34
 Force Cnst:      0.7908                 0.8875                 0.6295
 Red. Mass:       3.3501                 2.8116                 1.8193
 IR Intens:       16.238                 26.109                 11.397
 Frequency:       817.61                 855.22                 859.64
 Force Cnst:      1.0434                 1.7722                 1.0921
 Red. Mass:       2.6492                 4.1126                 2.5082
 IR Intens:       28.643                 28.238                 26.579
 Frequency:       899.37                 917.73                 955.44
 Force Cnst:      1.4942                 1.6877                 1.2498
 Red. Mass:       3.1353                 3.4011                 2.3238
 IR Intens:       54.026                118.079                 63.481
 Frequency:       969.59                1005.66                1021.52
 Force Cnst:      2.0433                 1.2870                 0.8849
 Red. Mass:       3.6890                 2.1598                 1.4392
 IR Intens:       21.187                 93.554                  2.798
 Frequency:      1037.66                1097.93                1126.77
 Force Cnst:      1.2724                 1.1676                 2.0178
 Red. Mass:       2.0057                 1.6439                 2.6975
 IR Intens:       99.424                  8.088                167.866
 Frequency:      1160.79                1203.29                1267.80
 Force Cnst:      0.9344                 0.9354                 1.2524
 Red. Mass:       1.1770                 1.0965                 1.3225
 IR Intens:       51.735                 15.228                 19.443
 Frequency:      1276.21                1327.78                1351.04
 Force Cnst:      1.4229                 1.9549                 1.4276
 Red. Mass:       1.4828                 1.8820                 1.3274
 IR Intens:       26.276                 20.871                 10.944
 Frequency:      1366.65                1388.78                1407.26
 Force Cnst:      1.4656                 2.3551                 1.8815
 Red. Mass:       1.3318                 2.0725                 1.6125
 IR Intens:       84.984                 12.064                 15.701
 Frequency:      1546.24                1734.62                2998.07
 Force Cnst:      8.9584                13.7164                 5.7365
 Red. Mass:       6.3596                 7.7372                 1.0832
 IR Intens:      511.668                  0.301                 76.174
 Frequency:      3096.10                3150.93                3153.73
 Force Cnst:      6.1277                 6.3662                 6.3713
 Red. Mass:       1.0850                 1.0883                 1.0872
 IR Intens:        8.163                  2.180                  8.168
 Frequency:      3199.84                3219.19                3822.65
 Force Cnst:      6.6034                 6.6743                 9.1876
 Red. Mass:       1.0946                 1.0931                 1.0671
 IR Intens:        9.153                  6.239                133.778

 STANDARD THERMODYNAMIC QUANTITIES AT   298.15 K  AND     1.00 ATM

   This Molecule has  2 Imaginary Frequencies
   Zero point vibrational energy:       78.465 kcal/mol

   Atom    1 Element C  Has Mass   12.00000
   Atom    2 Element O  Has Mass   15.99491
   Atom    3 Element O  Has Mass   15.99491
   Atom    4 Element C  Has Mass   12.00000
   Atom    5 Element C  Has Mass   12.00000
   Atom    6 Element C  Has Mass   12.00000
   Atom    7 Element O  Has Mass   15.99491
   Atom    8 Element C  Has Mass   12.00000
   Atom    9 Element C  Has Mass   12.00000
   Atom   10 Element H  Has Mass    1.00783
   Atom   11 Element H  Has Mass    1.00783
   Atom   12 Element H  Has Mass    1.00783
   Atom   13 Element H  Has Mass    1.00783
   Atom   14 Element H  Has Mass    1.00783
   Atom   15 Element H  Has Mass    1.00783
   Atom   16 Element O  Has Mass   15.99491
   Atom   17 Element H  Has Mass    1.00783
   Molecular Mass:   143.034450 amu
   Principal axes and moments of inertia in amu*Bohr^2:
                             1           2           3
    Eigenvalues --      854.87394  1359.76192  1370.83164
          X               0.54135     0.67085     0.50686
          Y               0.75710    -0.65114     0.05320
          Z              -0.36572    -0.35494     0.86039
   Rotational Symmetry Number is   1
   The Molecule is an Asymmetric Top
   Translational Enthalpy:        0.889 kcal/mol
   Rotational Enthalpy:           0.889 kcal/mol
   Vibrational Enthalpy:         81.482 kcal/mol
   gas constant (RT):             0.592 kcal/mol
   Translational Entropy:        40.785  cal/mol.K
   Rotational Entropy:           28.856  cal/mol.K
   Vibrational Entropy:          15.879  cal/mol.K

   Total Enthalpy:               83.852 kcal/mol
   Total Entropy:                85.520  cal/mol.K
 Total job time:  12652.27s(wall), 312162.04s(cpu)
        *  Thank you very much for using Q-Chem.  Have a nice day.  *
 Q-Chem 5.4, Q-Chem, Inc., Pleasanton, CA (2021)
 Q-Chem 5.4.1 for Intel X86 EM64T Linux

User input:
--------------------------------------------------------------

$rem
JOBTYPE = ts
SCF_GUESS = read
GEOM_OPT_HESSIAN = read
MAX_SCF_CYCLES = 350
GEOM_OPT_DMAX = 60
GEOM_OPT_MAX_CYCLES = 250
METHOD = wB97M-v
BASIS = 6-311++G(2df,2p)
SCF_CONVERGENCE = 7
THRESH = 12
SCF_ALGORITHM = DIIS_GDM
solvent_method = SMD
$end

$molecule
read
$end
--------------------------------------------------------------

   18    -533.5593047034      9.43e-08  Convergence criterion met
 Total energy in the final basis set =     -533.5528914912
   18    -533.5592981959      9.42e-08  Convergence criterion met
 Total energy in the final basis set =     -533.5528903008
   18    -533.5593057674      9.63e-08  Convergence criterion met
 Total energy in the final basis set =     -533.5528916977
   18    -533.5592992064      9.73e-08  Convergence criterion met
 Total energy in the final basis set =     -533.5528902768
   18    -533.5593074186      9.40e-08  Convergence criterion met
 Total energy in the final basis set =     -533.5528917183
   18    -533.5592939283      9.29e-08  Convergence criterion met
 Total energy in the final basis set =     -533.5528894610

             Standard Nuclear Orientation (Angstroms)
    I     Atom           X                Y                Z
 ----------------------------------------------------------------
    1      C       0.9575543508     0.0630275269    -1.0186033935
    2      O       1.1826766902     1.3709075328    -0.4575272313
    3      O       0.0025554246     1.6644977930     0.3493286879
    4      C      -0.5508724494     0.0954893375    -1.2609691175
    5      C      -0.9366581026     0.7541457492     0.0267791143
    6      C      -0.5808220408    -0.8819405893     1.5225329375
    7      O      -1.5981069274    -1.5915667271     1.5758127926
    8      C       0.6990976350    -1.4322286665     0.9757024414
    9      C       1.3830120288    -1.0386899037    -0.0918356525
   10      H       1.5289827942     0.0664912190    -1.9424259433
   11      H      -0.7668430366     0.7729192243    -2.0923236379
   12      H      -1.9320622090     1.0332215614     0.3434719797
   13      H      -0.4880012539    -0.0137331687     2.1875136977
   14      H       1.0753544910    -2.2646257403     1.5635108090
   15      H       2.3042605793    -1.5483684985    -0.3408290218
   16      O      -1.1121460809    -1.1726929908    -1.4851441138
   17      H      -1.8490400932    -1.0699737592    -2.0960434485
 ----------------------------------------------------------------

   18    -533.5592965144      9.38e-08  Convergence criterion met
 Total energy in the final basis set =     -533.5528888467
 Final energy is   -533.552888846670
 **  OPTIMIZATION CONVERGED  **

                    Orbital Energies (a.u.)
 --------------------------------------------------------------

 Alpha MOs
 -- Occupied --
-19.4461 -19.4203 -19.3539 -19.3258 -10.4335 -10.4272 -10.4220 -10.4157
-10.3565 -10.3546  -1.3095  -1.1791  -1.1670  -1.1005  -0.9543  -0.8965
 -0.8054  -0.7626  -0.7341  -0.6900  -0.6683  -0.6469  -0.6077  -0.5935
 -0.5780  -0.5672  -0.5514  -0.5357  -0.5303  -0.5108  -0.4983  -0.4739
 -0.4698  -0.4181  -0.3951  -0.3768  -0.3670  -0.2903

 Beta MOs
 -- Occupied --
-19.4412 -19.4204 -19.3538 -19.3200 -10.4339 -10.4221 -10.4181 -10.4156
-10.3564 -10.3544  -1.3035  -1.1783  -1.1576  -1.0955  -0.9505  -0.8922
 -0.7998  -0.7549  -0.7263  -0.6829  -0.6635  -0.6443  -0.6014  -0.5870
 -0.5744  -0.5606  -0.5409  -0.5272  -0.5194  -0.5062  -0.4961  -0.4688
 -0.4463  -0.4131  -0.3877  -0.3751  -0.3609

          Ground-State Mulliken Net Atomic Charges

     Atom                 Charge (a.u.)    Spin (a.u.)
  --------------------------------------------------------
      1 C                    -0.079325      -0.012422
      2 O                    -0.118069      -0.002889
      3 O                    -0.010319       0.124676
      4 C                    -0.018006       0.002613
      5 C                    -0.333828       0.583498
      6 C                    -0.206254       0.062656
      7 O                    -0.458497       0.205789
      8 C                    -0.051530      -0.027870
      9 C                    -0.346394       0.030939
     10 H                     0.290876      -0.002254
     11 H                     0.260461       0.029393
     12 H                     0.322357      -0.007944
     13 H                     0.229673       0.007576
     14 H                     0.276212       0.002367
     15 H                     0.302140       0.000445
     16 O                    -0.413947       0.003693
     17 H                     0.354452      -0.000265
  --------------------------------------------------------
  Sum of atomic charges =     0.000000

                    Cartesian Multipole Moments
 -----------------------------------------------------------------
    Charge (ESU x 10^10)
                 0.0000
    Dipole Moment (Debye)
         X       1.1410      Y       2.5921      Z      -4.7203
       Tot       5.5047
    Quadrupole Moments (Debye-Ang)
        XX     -56.5795     XY     -13.4219     YY     -69.2066
        XZ       8.0993     YZ       2.4715     ZZ     -50.9154

 Total job time:  5025.33s(wall), 125182.65s(cpu)
        *  Thank you very much for using Q-Chem.  Have a nice day.  *
