 Q-Chem 5.4, Q-Chem, Inc., Pleasanton, CA (2021)
 Q-Chem 5.4.1 for Intel X86 EM64T Linux

User input:
--------------------------------------------------------------
$molecule
0 2
O         1.5907865096   -0.7181961045    0.4465959127
C         2.8063084817   -0.4414297793   -0.2227344998
C         3.8929484566    0.1585415825    0.6448183616
O         5.0003609138    0.3841788470    0.1326367705
C         3.6361733287    0.4549268408    2.0169152981
C         4.6846085732    1.0820042512    2.8609047305
C         4.9428601759    2.5442696836    2.4663245936
O         3.7187093120    3.2257405861    2.3278372841
O         5.7539813277    3.1112594190    3.4711442927
H         1.1215322174    0.1102184038    0.5915445928
H         2.6559881903    0.2307134918   -1.0703942580
H         3.1878740981   -1.3845200616   -0.6128000413
H         2.6742860769    0.2286144273    2.4497502417
H         5.6342002457    0.5598566760    2.7147704664
H         5.4757613003    2.5488038765    1.5159129433
H         3.8732005656    4.0143101608    1.7951746506
H         6.1604458870    3.9110985054    3.1169720138
O         4.4522664375    0.8849368427    4.2473428165
O         3.1541435937    1.4040688862    4.6059262672
C         3.3511667308    2.1887308104    5.7655778220
O         3.7733859321    3.4928207403    5.4763985860
H         2.3662643268    2.2500324325    6.2223149309
H         4.0534315675    1.6700754153    6.4188639362
H         4.6074710507    3.4393469664    4.9788494878
$end

$rem
BASIS = 6-311++G(2df,2p)
GUI = 2
JOB_TYPE = Frequency
METHOD = wB97M-V
SOLVENT_METHOD = SMD
SCF_ALGORITHM = DIIS_GDM
MAX_SCF_CYCLES = 400
SCF_CONVERGENCE = 7
THRESH = 12
$end
--------------------------------------------------------------

   21    -761.7291812490      5.97e-08  Convergence criterion met
 Total energy in the final basis set =     -761.7204606670
   19    -761.7291819205      5.94e-08  Convergence criterion met
 Total energy in the final basis set =     -761.7204598482
   19    -761.7291791598      5.87e-08  Convergence criterion met
 Total energy in the final basis set =     -761.7204598256
   19    -761.7291807424      5.86e-08  Convergence criterion met
 Total energy in the final basis set =     -761.7204597575
   19    -761.7291799861      6.94e-08  Convergence criterion met
 Total energy in the final basis set =     -761.7204597941
   19    -761.7291808686      5.85e-08  Convergence criterion met
 Total energy in the final basis set =     -761.7204603747
   19    -761.7291811561      5.89e-08  Convergence criterion met
 Total energy in the final basis set =     -761.7204604125
   19    -761.7291783530      5.74e-08  Convergence criterion met
 Total energy in the final basis set =     -761.7204603812
   19    -761.7291816683      5.87e-08  Convergence criterion met
 Total energy in the final basis set =     -761.7204603962
   19    -761.7291810140      5.87e-08  Convergence criterion met
 Total energy in the final basis set =     -761.7204600043
   19    -761.7291802024      5.86e-08  Convergence criterion met
 Total energy in the final basis set =     -761.7204600481
   19    -761.7291817654      5.87e-08  Convergence criterion met
 Total energy in the final basis set =     -761.7204605345
   19    -761.7291805126      5.87e-08  Convergence criterion met
 Total energy in the final basis set =     -761.7204605788
   19    -761.7291812370      5.86e-08  Convergence criterion met
 Total energy in the final basis set =     -761.7204604973
   19    -761.7291808113      5.87e-08  Convergence criterion met
 Total energy in the final basis set =     -761.7204603868

                    Orbital Energies (a.u.)
 --------------------------------------------------------------

 Alpha MOs
 -- Occupied --
-19.4085 -19.4050 -19.3547 -19.3481 -19.3443 -19.3389 -19.3372 -10.4554
-10.4370 -10.4365 -10.4186 -10.3930 -10.3882  -1.2804  -1.2073  -1.1856
 -1.1649  -1.1624  -1.1421  -1.0715  -0.9269  -0.8621  -0.8187  -0.7910
 -0.7376  -0.6842  -0.6726  -0.6553  -0.6491  -0.6337  -0.6278  -0.6044
 -0.5919  -0.5848  -0.5696  -0.5595  -0.5402  -0.5271  -0.5148  -0.5130
 -0.4982  -0.4792  -0.4688  -0.4561  -0.4452  -0.4268  -0.4200  -0.4181
 -0.4031  -0.3798  -0.3690  -0.3439

 Beta MOs
 -- Occupied --
-19.4084 -19.4049 -19.3547 -19.3479 -19.3443 -19.3372 -19.3322 -10.4546
-10.4373 -10.4370 -10.4192 -10.3931 -10.3777  -1.2803  -1.2067  -1.1763
 -1.1648  -1.1604  -1.1417  -1.0709  -0.9112  -0.8576  -0.8114  -0.7906
 -0.7341  -0.6809  -0.6709  -0.6545  -0.6461  -0.6320  -0.6235  -0.6002
 -0.5894  -0.5801  -0.5640  -0.5559  -0.5348  -0.5252  -0.5131  -0.4964
 -0.4950  -0.4784  -0.4642  -0.4461  -0.4427  -0.4221  -0.4193  -0.4171
 -0.4023  -0.3779  -0.3631

          Ground-State Mulliken Net Atomic Charges

     Atom                 Charge (a.u.)    Spin (a.u.)
  --------------------------------------------------------
      1 O                    -0.422927      -0.000656
      2 C                    -0.344781       0.000796
      3 C                     0.137424       0.023572
      4 O                    -0.486047       0.246643
      5 C                    -0.316634       0.705833
      6 C                     0.332405      -0.046174
      7 C                    -0.337635       0.040499
      8 O                    -0.420446       0.005808
      9 O                    -0.432253       0.000818
     10 H                     0.334693       0.000981
     11 H                     0.207807       0.001478
     12 H                     0.209218       0.002475
     13 H                     0.318333      -0.010178
     14 H                     0.322678       0.018735
     15 H                     0.277285      -0.001022
     16 H                     0.360689      -0.000806
     17 H                     0.366031       0.000632
     18 O                    -0.125801       0.006715
     19 O                    -0.105477       0.002942
     20 C                    -0.177673       0.000610
     21 O                    -0.494165       0.000275
     22 H                     0.213427      -0.000047
     23 H                     0.221383       0.000194
     24 H                     0.362469      -0.000125
  --------------------------------------------------------
  Sum of atomic charges =    -0.000000

                    Cartesian Multipole Moments
 -----------------------------------------------------------------
    Charge (ESU x 10^10)
                -0.0000
    Dipole Moment (Debye)
         X       0.7047      Y       3.1294      Z      -2.3883
       Tot       3.9992
    Quadrupole Moments (Debye-Ang)
        XX     -68.9159     XY      19.4104     YY     -66.9719
        XZ      -2.6012     YZ      -7.5129     ZZ     -92.7897

             Standard Nuclear Orientation (Angstroms)
    I     Atom           X                Y                Z
 ----------------------------------------------------------------
    1      O       1.5907865096    -0.7181961045     0.4465959127
    2      C       2.8063084817    -0.4414297793    -0.2227344998
    3      C       3.8929484566     0.1585415825     0.6448183616
    4      O       5.0003609138     0.3841788470     0.1326367705
    5      C       3.6361733287     0.4549268408     2.0169152981
    6      C       4.6846085732     1.0820042512     2.8609047305
    7      C       4.9428601759     2.5442696836     2.4663245936
    8      O       3.7187093120     3.2257405861     2.3278372841
    9      O       5.7539813277     3.1112594190     3.4711442927
   10      H       1.1215322174     0.1102184038     0.5915445928
   11      H       2.6559881903     0.2307134918    -1.0703942580
   12      H       3.1878740981    -1.3845200616    -0.6128000413
   13      H       2.6742860769     0.2286144273     2.4497502417
   14      H       5.6342002457     0.5598566760     2.7147704664
   15      H       5.4757613003     2.5488038765     1.5159129433
   16      H       3.8732005656     4.0143101608     1.7951746506
   17      H       6.1604458870     3.9110985054     3.1169720138
   18      O       4.4522664375     0.8849368427     4.2473428165
   19      O       3.1541435937     1.4040688862     4.6059262672
   20      C       3.3511667308     2.1887308104     5.7655778220
   21      O       3.7733859321     3.4928207403     5.4763985860
   22      H       2.3662643268     2.2500324325     6.2223149309
   23      H       4.0534315675     1.6700754153     6.4188639362
   24      H       4.6074710507     3.4393469664     4.9788494878
 ----------------------------------------------------------------

 Frequency:        44.83                  47.15                  76.79
 Force Cnst:      0.0080                 0.0089                 0.0216
 Red. Mass:       6.7965                 6.8063                 6.2286
 IR Intens:       11.930                  3.775                  8.331
 Frequency:        89.65                 103.60                 120.19
 Force Cnst:      0.0160                 0.0169                 0.0479
 Red. Mass:       3.3782                 2.6752                 5.6322
 IR Intens:       16.225                 14.053                 14.313
 Frequency:       147.67                 182.93                 204.70
 Force Cnst:      0.0936                 0.1324                 0.1296
 Red. Mass:       7.2855                 6.7168                 5.2486
 IR Intens:        3.036                  7.220                  2.653
 Frequency:       235.96                 252.61                 297.99
 Force Cnst:      0.1853                 0.1733                 0.0855
 Red. Mass:       5.6483                 4.6087                 1.6344
 IR Intens:       11.007                 14.697                 71.489
 Frequency:       313.36                 353.83                 365.66
 Force Cnst:      0.1395                 0.0987                 0.1393
 Red. Mass:       2.4111                 1.3384                 1.7687
 IR Intens:       98.925                117.245                 81.639
 Frequency:       372.88                 449.49                 478.11
 Force Cnst:      0.0945                 0.5086                 0.5846
 Red. Mass:       1.1538                 4.2726                 4.3408
 IR Intens:      218.087                105.155                109.756
 Frequency:       506.67                 521.24                 541.75
 Force Cnst:      0.3138                 0.5124                 0.2937
 Red. Mass:       2.0748                 3.2013                 1.6983
 IR Intens:       36.291                 95.709                135.292
 Frequency:       571.15                 607.13                 608.51
 Force Cnst:      1.0441                 0.7016                 0.9138
 Red. Mass:       5.4321                 3.2307                 4.1884
 IR Intens:       10.158                 24.481                 88.547
 Frequency:       701.30                 793.84                 832.37
 Force Cnst:      0.7146                 1.4087                 1.6257
 Red. Mass:       2.4662                 3.7939                 3.9825
 IR Intens:       22.940                 35.061                  6.903
 Frequency:       914.75                 948.58                 965.87
 Force Cnst:      1.7754                 2.0278                 1.0702
 Red. Mass:       3.6011                 3.8248                 1.9470
 IR Intens:        8.115                 15.141                 31.026
 Frequency:      1062.18                1092.41                1126.67
 Force Cnst:      1.4057                 2.5066                 1.8103
 Red. Mass:       2.1147                 3.5651                 2.4205
 IR Intens:       64.584                 75.254                128.756
 Frequency:      1151.61                1176.62                1195.51
 Force Cnst:      2.1770                 1.4341                 2.3862
 Red. Mass:       2.7861                 1.7581                 2.8337
 IR Intens:       56.025                112.644                126.807
 Frequency:      1206.68                1211.24                1220.07
 Force Cnst:      1.0659                 1.0025                 3.7524
 Red. Mass:       1.2425                 1.1597                 4.2785
 IR Intens:      215.223                 16.903                172.104
 Frequency:      1224.11                1236.52                1252.32
 Force Cnst:      3.2433                 2.1088                 1.2199
 Red. Mass:       3.6737                 2.3409                 1.3202
 IR Intens:      277.665                 98.735                 34.299
 Frequency:      1297.26                1304.22                1364.36
 Force Cnst:      1.6341                 1.3184                 1.6185
 Red. Mass:       1.6480                 1.3155                 1.4758
 IR Intens:      147.298                 80.669                  3.772
 Frequency:      1379.84                1399.29                1400.84
 Force Cnst:      1.4918                 1.4890                 1.4179
 Red. Mass:       1.3298                 1.2908                 1.2264
 IR Intens:        5.503                 70.569                 20.914
 Frequency:      1416.45                1444.86                1451.19
 Force Cnst:      1.4468                 1.6113                 1.4774
 Red. Mass:       1.2239                 1.3100                 1.1907
 IR Intens:       16.120                186.267                 38.809
 Frequency:      1471.49                1476.17                1481.12
 Force Cnst:      2.5044                 2.6890                 1.4807
 Red. Mass:       1.9631                 2.0945                 1.1456
 IR Intens:       93.138                 52.401                  9.673
 Frequency:      1591.46                3062.74                3073.81
 Force Cnst:     12.7907                 5.8748                 6.0259
 Red. Mass:       8.5714                 1.0630                 1.0825
 IR Intens:      181.146                 36.205                  0.379
 Frequency:      3075.06                3103.22                3121.82
 Force Cnst:      5.9150                 6.1699                 6.3245
 Red. Mass:       1.0617                 1.0874                 1.1014
 IR Intens:       64.312                 24.171                  9.934
 Frequency:      3156.95                3244.50                3636.78
 Force Cnst:      6.5000                 6.7545                 8.3168
 Red. Mass:       1.1070                 1.0891                 1.0673
 IR Intens:       17.396                  5.144                573.449
 Frequency:      3817.91                3822.23                3832.24
 Force Cnst:      9.1609                 9.1827                 9.2312
 Red. Mass:       1.0667                 1.0668                 1.0669
 IR Intens:      138.859                162.245                126.323

 STANDARD THERMODYNAMIC QUANTITIES AT   298.15 K  AND     1.00 ATM

   This Molecule has  0 Imaginary Frequencies
   Zero point vibrational energy:      117.557 kcal/mol

   Atom    1 Element O  Has Mass   15.99491
   Atom    2 Element C  Has Mass   12.00000
   Atom    3 Element C  Has Mass   12.00000
   Atom    4 Element O  Has Mass   15.99491
   Atom    5 Element C  Has Mass   12.00000
   Atom    6 Element C  Has Mass   12.00000
   Atom    7 Element C  Has Mass   12.00000
   Atom    8 Element O  Has Mass   15.99491
   Atom    9 Element O  Has Mass   15.99491
   Atom   10 Element H  Has Mass    1.00783
   Atom   11 Element H  Has Mass    1.00783
   Atom   12 Element H  Has Mass    1.00783
   Atom   13 Element H  Has Mass    1.00783
   Atom   14 Element H  Has Mass    1.00783
   Atom   15 Element H  Has Mass    1.00783
   Atom   16 Element H  Has Mass    1.00783
   Atom   17 Element H  Has Mass    1.00783
   Atom   18 Element O  Has Mass   15.99491
   Atom   19 Element O  Has Mass   15.99491
   Atom   20 Element C  Has Mass   12.00000
   Atom   21 Element O  Has Mass   15.99491
   Atom   22 Element H  Has Mass    1.00783
   Atom   23 Element H  Has Mass    1.00783
   Atom   24 Element H  Has Mass    1.00783
   Molecular Mass:   195.050500 amu
   Principal axes and moments of inertia in amu*Bohr^2:
                             1           2           3
    Eigenvalues --     1360.31913  3950.52524  4561.83395
          X               0.18281     0.77777    -0.60138
          Y               0.52999     0.43724     0.72659
          Z               0.82806    -0.45156    -0.33228
   Rotational Symmetry Number is   1
   The Molecule is an Asymmetric Top
   Translational Enthalpy:        0.889 kcal/mol
   Rotational Enthalpy:           0.889 kcal/mol
   Vibrational Enthalpy:        124.849 kcal/mol
   gas constant (RT):             0.592 kcal/mol
   Translational Entropy:        41.709  cal/mol.K
   Rotational Entropy:           31.572  cal/mol.K
   Vibrational Entropy:          47.342  cal/mol.K

   Total Enthalpy:              127.219 kcal/mol
   Total Entropy:               120.624  cal/mol.K
 Total job time:  54023.69s(wall), 755973.59s(cpu)
        *  Thank you very much for using Q-Chem.  Have a nice day.  *
