 Q-Chem 5.4, Q-Chem, Inc., Pleasanton, CA (2021)
 Q-Chem 5.4.1 for Intel X86 EM64T Linux

User input:
--------------------------------------------------------------
$molecule
0 2
O         1.5728903277   -0.6670500404    0.4603273153
C         2.7916715559   -0.4311471470   -0.2209808128
C         3.8819104184    0.1982282674    0.6303404239
O         4.9653793489    0.4988445949    0.0942411312
C         3.6541226886    0.4184969261    2.0258195473
C         4.7074988874    1.0493413797    2.8702518252
C         4.9458705947    2.5206648150    2.4911915536
O         3.7081948612    3.1789997807    2.3717363796
O         5.7625184149    3.0792947557    3.5025526585
H         1.1448162831    0.1937501793    0.5962437119
H         2.6547063622    0.1995388584   -1.1084985485
H         3.1638278790   -1.4020959979   -0.5640186511
H         2.7136448019    0.1268776020    2.4775514647
H         5.6651891273    0.5336043383    2.7192151243
H         5.4784199073    2.5435597499    1.5352316025
H         3.8668587666    4.0048761106    1.8845048176
H         6.1010071705    3.9272677268    3.1666414159
O         4.4794230261    0.8460240362    4.2593694847
O         3.1666926244    1.3588592536    4.6040486560
C         3.3615858437    2.2130958253    5.7220372645
O         3.7317934117    3.5139635358    5.3702035323
H         2.3769519746    2.2594166588    6.1925926333
H         4.0873575182    1.7367845384    6.3904017295
H         4.5858235055    3.4492071526    4.8896429406
$end

$rem
BASIS = 6-311++G(2df,2p)
GUI = 2
JOB_TYPE = Optimization
METHOD = wB97M-V
SCF_ALGORITHM = DIIS_GDM
MAX_SCF_CYCLES = 400
GEOM_OPT_MAX_CYCLES = 150
SCF_CONVERGENCE = 7
THRESH = 12
Solvent_method = SMD
$end
--------------------------------------------------------------

   21    -761.7279526107      5.90e-08  Convergence criterion met
 Total energy in the final basis set =     -761.7192801539
   20    -761.7262940626      3.84e-08  Convergence criterion met
 Total energy in the final basis set =     -761.7173764877
   19    -761.7282297445      4.86e-08  Convergence criterion met
 Total energy in the final basis set =     -761.7194059238
   19    -761.7267515333      6.98e-08  Convergence criterion met
 Total energy in the final basis set =     -761.7180993596
   19    -761.7289017454      7.50e-08  Convergence criterion met
 Total energy in the final basis set =     -761.7201163063
   19    -761.7289073275      4.94e-08  Convergence criterion met
 Total energy in the final basis set =     -761.7201938379
   19    -761.7290256543      5.91e-08  Convergence criterion met
 Total energy in the final basis set =     -761.7203209199
   17    -761.7291161435      4.55e-08  Convergence criterion met
 Total energy in the final basis set =     -761.7203908819
   19    -761.7291622140      5.23e-08  Convergence criterion met
 Total energy in the final basis set =     -761.7204475975
   19    -761.7291681059      5.70e-08  Convergence criterion met
 Total energy in the final basis set =     -761.7204521217
   19    -761.7291717557      5.43e-08  Convergence criterion met
 Total energy in the final basis set =     -761.7204553132
   17    -761.7291777274      5.58e-08  Convergence criterion met
 Total energy in the final basis set =     -761.7204581974
   19    -761.7291816888      6.01e-08  Convergence criterion met
 Total energy in the final basis set =     -761.7204602024

             Standard Nuclear Orientation (Angstroms)
    I     Atom           X                Y                Z
 ----------------------------------------------------------------
    1      O       1.5907865096    -0.7181961045     0.4465959127
    2      C       2.8063084817    -0.4414297793    -0.2227344998
    3      C       3.8929484566     0.1585415825     0.6448183616
    4      O       5.0003609138     0.3841788470     0.1326367705
    5      C       3.6361733287     0.4549268408     2.0169152981
    6      C       4.6846085732     1.0820042512     2.8609047305
    7      C       4.9428601759     2.5442696836     2.4663245936
    8      O       3.7187093120     3.2257405861     2.3278372841
    9      O       5.7539813277     3.1112594190     3.4711442927
   10      H       1.1215322174     0.1102184038     0.5915445928
   11      H       2.6559881903     0.2307134918    -1.0703942580
   12      H       3.1878740981    -1.3845200616    -0.6128000413
   13      H       2.6742860769     0.2286144273     2.4497502417
   14      H       5.6342002457     0.5598566760     2.7147704664
   15      H       5.4757613003     2.5488038765     1.5159129433
   16      H       3.8732005656     4.0143101608     1.7951746506
   17      H       6.1604458870     3.9110985054     3.1169720138
   18      O       4.4522664375     0.8849368427     4.2473428165
   19      O       3.1541435937     1.4040688862     4.6059262672
   20      C       3.3511667308     2.1887308104     5.7655778220
   21      O       3.7733859321     3.4928207403     5.4763985860
   22      H       2.3662643268     2.2500324325     6.2223149309
   23      H       4.0534315675     1.6700754153     6.4188639362
   24      H       4.6074710507     3.4393469664     4.9788494878
 ----------------------------------------------------------------

   19    -761.7291812506      7.08e-08  Convergence criterion met
 Total energy in the final basis set =     -761.7204606685
 Final energy is   -761.720460668529
 **  OPTIMIZATION CONVERGED  **

                    Orbital Energies (a.u.)
 --------------------------------------------------------------

 Alpha MOs
 -- Occupied --
-19.4085 -19.4050 -19.3547 -19.3481 -19.3443 -19.3389 -19.3372 -10.4554
-10.4370 -10.4365 -10.4186 -10.3930 -10.3882  -1.2804  -1.2072  -1.1856
 -1.1650  -1.1624  -1.1421  -1.0716  -0.9269  -0.8621  -0.8187  -0.7911
 -0.7376  -0.6842  -0.6726  -0.6553  -0.6491  -0.6337  -0.6278  -0.6044
 -0.5920  -0.5848  -0.5696  -0.5595  -0.5402  -0.5271  -0.5148  -0.5130
 -0.4982  -0.4792  -0.4688  -0.4561  -0.4452  -0.4268  -0.4200  -0.4181
 -0.4031  -0.3798  -0.3690  -0.3439

 Beta MOs
 -- Occupied --
-19.4084 -19.4049 -19.3547 -19.3479 -19.3443 -19.3372 -19.3322 -10.4546
-10.4373 -10.4370 -10.4192 -10.3931 -10.3777  -1.2803  -1.2067  -1.1763
 -1.1649  -1.1604  -1.1417  -1.0709  -0.9112  -0.8576  -0.8114  -0.7906
 -0.7341  -0.6809  -0.6709  -0.6546  -0.6461  -0.6320  -0.6235  -0.6002
 -0.5894  -0.5801  -0.5640  -0.5559  -0.5348  -0.5252  -0.5131  -0.4964
 -0.4950  -0.4784  -0.4642  -0.4461  -0.4427  -0.4221  -0.4193  -0.4171
 -0.4023  -0.3779  -0.3631

          Ground-State Mulliken Net Atomic Charges

     Atom                 Charge (a.u.)    Spin (a.u.)
  --------------------------------------------------------
      1 O                    -0.422928      -0.000656
      2 C                    -0.344783       0.000797
      3 C                     0.137433       0.023573
      4 O                    -0.486047       0.246643
      5 C                    -0.316660       0.705832
      6 C                     0.332394      -0.046174
      7 C                    -0.337578       0.040500
      8 O                    -0.420436       0.005809
      9 O                    -0.432346       0.000818
     10 H                     0.334693       0.000981
     11 H                     0.207806       0.001479
     12 H                     0.209218       0.002475
     13 H                     0.318329      -0.010178
     14 H                     0.322661       0.018736
     15 H                     0.277303      -0.001022
     16 H                     0.360666      -0.000806
     17 H                     0.366012       0.000632
     18 O                    -0.125784       0.006714
     19 O                    -0.105496       0.002942
     20 C                    -0.177699       0.000609
     21 O                    -0.493868       0.000275
     22 H                     0.213438      -0.000047
     23 H                     0.221397       0.000194
     24 H                     0.362276      -0.000125
  --------------------------------------------------------
  Sum of atomic charges =    -0.000000

                    Cartesian Multipole Moments
 -----------------------------------------------------------------
    Charge (ESU x 10^10)
                -0.0000
    Dipole Moment (Debye)
         X       0.7041      Y       3.1295      Z      -2.3849
       Tot       3.9972
    Quadrupole Moments (Debye-Ang)
        XX     -68.9219     XY      19.4087     YY     -66.9713
        XZ      -2.5884     YZ      -7.5021     ZZ     -92.7595

 Total job time:  5988.55s(wall), 83163.60s(cpu)
        *  Thank you very much for using Q-Chem.  Have a nice day.  *
