 Q-Chem 5.4, Q-Chem, Inc., Pleasanton, CA (2021)
 Q-Chem 5.4.1 for Intel X86 EM64T Linux

User input:
--------------------------------------------------------------
$molecule
0 2
C         0.6072589961    0.0995536333    0.2712972596
O         1.4192510827   -0.7394525853    0.5581470688
H        -2.1260616732    1.1525978741    0.6669314370
C        -0.8871968854   -0.2005200305    0.1817492238
O        -1.1409735157   -1.4918035736    0.0903525274
O        -1.6789620209    0.6859210684   -0.2986863993
O         0.9279555595    1.3610302873    0.0358978246
H         0.1400538454    1.8737465506   -0.2114863691
O        -1.2145784868    0.1862517434    2.0046042293
O        -2.1040940641    1.1019168681    1.9304935257
H        -2.0845900376   -1.6251677360   -0.0954806277
$end

$rem
BASIS = 6-311++G(2df,2p)
GUI = 2
JOB_TYPE = Frequency
METHOD = wB97M-V
SOLVENT_METHOD = SMD
SCF_ALGORITHM = DIIS_GDM
MAX_SCF_CYCLES = 400
SCF_CONVERGENCE = 7
THRESH = 12
$end

--------------------------------------------------------------

   21    -529.3047378461      6.07e-08  Convergence criterion met
 Total energy in the final basis set =     -529.2973384641
   19    -529.3047415583      6.53e-08  Convergence criterion met
 Total energy in the final basis set =     -529.2973370892
   19    -529.3047314080      6.74e-08  Convergence criterion met
 Total energy in the final basis set =     -529.2973371317
   19    -529.3047411108      6.56e-08  Convergence criterion met
 Total energy in the final basis set =     -529.2973371480
   19    -529.3047318267      6.54e-08  Convergence criterion met
 Total energy in the final basis set =     -529.2973371044
   19    -529.3047367960      6.81e-08  Convergence criterion met
 Total energy in the final basis set =     -529.2973380383
   19    -529.3047379774      6.49e-08  Convergence criterion met
 Total energy in the final basis set =     -529.2973379794
   19    -529.3047354594      6.80e-08  Convergence criterion met
 Frequency:      -978.18                  66.21                 107.78
 Force Cnst:      0.7725                 0.0215                 0.0769
 Red. Mass:       1.3703                 8.3280                11.2311
 IR Intens:      528.158                  9.540                  9.532
 Frequency:       195.48                 242.66                 290.12
 Force Cnst:      0.2643                 0.2848                 0.3663
 Red. Mass:      11.7388                 8.2103                 7.3867
 IR Intens:       17.534                 32.344                121.450
 Frequency:       406.09                 467.98                 487.73
 Force Cnst:      0.7124                 0.3140                 0.3015
 Red. Mass:       7.3322                 2.4334                 2.1513
 IR Intens:       44.878                207.155                211.757
 Frequency:       556.13                 571.72                 621.35
 Force Cnst:      0.2488                 0.4960                 1.2639
 Red. Mass:       1.3653                 2.5758                 5.5565
 IR Intens:      363.076                 54.770                 29.809
 Frequency:       679.78                 753.44                 838.32
 Force Cnst:      1.9712                 2.9872                 2.7200
 Red. Mass:       7.2400                 8.9312                 6.5691
 IR Intens:       57.155                 74.958                 72.648
 Frequency:       878.79                1018.74                1130.26
 Force Cnst:      3.1333                 0.6564                 2.3051
 Red. Mass:       6.8862                 1.0735                 3.0625
 IR Intens:      409.221                119.631                662.902
 Frequency:      1216.54                1291.19                1340.78
 Force Cnst:      1.4448                 1.8697                10.9090
 Red. Mass:       1.6569                 1.9035                10.2997
 IR Intens:       95.160                562.200                 87.543
 Frequency:      1437.27                1531.37                1812.74
 Force Cnst:      5.8257                 6.0301                19.0500
 Red. Mass:       4.7865                 4.3643                 9.8395
 IR Intens:        4.843                922.580                613.994
 Frequency:      1895.80                3705.46                3737.19
 Force Cnst:      2.2358                 8.6218                 8.7656
 Red. Mass:       1.0558                 1.0658                 1.0652
 IR Intens:      113.848                297.577                279.968

 STANDARD THERMODYNAMIC QUANTITIES AT   298.15 K  AND     1.00 ATM

   This Molecule has  1 Imaginary Frequencies
   Zero point vibrational energy:       39.000 kcal/mol

   Atom    1 Element C  Has Mass   12.00000
   Atom    2 Element O  Has Mass   15.99491
   Atom    3 Element H  Has Mass    1.00783
   Atom    4 Element C  Has Mass   12.00000
   Atom    5 Element O  Has Mass   15.99491
   Atom    6 Element O  Has Mass   15.99491
   Atom    7 Element O  Has Mass   15.99491
   Atom    8 Element H  Has Mass    1.00783
   Atom    9 Element O  Has Mass   15.99491
   Atom   10 Element O  Has Mass   15.99491
   Atom   11 Element H  Has Mass    1.00783
   Molecular Mass:   122.992950 amu
   Principal axes and moments of inertia in amu*Bohr^2:
                             1           2           3
    Eigenvalues --      620.34768   992.42885  1137.28605
          X               0.91677     0.28026     0.28460
          Y              -0.18932     0.93229    -0.30821
          Z              -0.35171     0.22868     0.90775
   Rotational Symmetry Number is   1
   The Molecule is an Asymmetric Top
   Translational Enthalpy:        0.889 kcal/mol
   Rotational Enthalpy:           0.889 kcal/mol
   Vibrational Enthalpy:         41.988 kcal/mol
   gas constant (RT):             0.592 kcal/mol
   Translational Entropy:        40.335  cal/mol.K
   Rotational Entropy:           28.039  cal/mol.K
   Vibrational Entropy:          17.996  cal/mol.K

   Total Enthalpy:               44.358 kcal/mol
   Total Entropy:                86.370  cal/mol.K
 Total job time:  5478.41s(wall), 79209.00s(cpu)
        *  Thank you very much for using Q-Chem.  Have a nice day.  *
 Q-Chem 5.4, Q-Chem, Inc., Pleasanton, CA (2021)
 Q-Chem 5.4.1 for Intel X86 EM64T Linux

User input:
--------------------------------------------------------------

$molecule
read
$end

$rem
JOBTYPE            rpath
SCF_GUESS          read
RPATH_MAX_CYCLES   30
BASIS = 6-311++G(2df,2p)
METHOD = wB97M-V
SOLVENT_METHOD = SMD
SCF_ALGORITHM = DIIS_GDM
SCF_CONVERGENCE = 7
THRESH = 12
$end
--------------------------------------------------------------

 Total energy in the final basis set =     -529.3083895291
   20    -529.3156338909      1.24e-08  Convergence criterion met
 Total energy in the final basis set =     -529.3087105977
   19    -529.3141719451      6.24e-08  Convergence criterion met
 Total energy in the final basis set =     -529.3075602986
   19    -529.3158265795      6.46e-08  Convergence criterion met
 Total energy in the final basis set =     -529.3089849236
   20    -529.3069793952      2.64e-08  Convergence criterion met
 Total energy in the final basis set =     -529.3007177993
   19    -529.3158237683      4.05e-08  Convergence criterion met
 Total energy in the final basis set =     -529.3090032261
   19    -529.3158363540      5.45e-08  Convergence criterion met
 Total energy in the final basis set =     -529.3090023007
   19    -529.3158350971      6.23e-08  Convergence criterion met
 Total energy in the final basis set =     -529.3090080371

                    Orbital Energies (a.u.)
 --------------------------------------------------------------

 Alpha MOs
 -- Occupied --
-19.4807 -19.4423 -19.4000 -19.3821 -19.3800 -19.3505 -10.5443 -10.5084
 -1.3749  -1.2736  -1.2449  -1.1940  -1.1741  -1.0164  -0.8466  -0.7546
 -0.7288  -0.7069  -0.6933  -0.6321  -0.6294  -0.6008  -0.5809  -0.5531
 -0.5254  -0.5162  -0.4942  -0.4734  -0.4532  -0.4334  -0.4132  -0.3968

 Beta MOs
 -- Occupied --
-19.4699 -19.4235 -19.4000 -19.3818 -19.3800 -19.3503 -10.5447 -10.5083
 -1.3505  -1.2715  -1.2429  -1.1937  -1.1738  -0.9830  -0.8392  -0.7540
 -0.7218  -0.7003  -0.6889  -0.6137  -0.6010  -0.5857  -0.5632  -0.5381
 -0.5214  -0.5127  -0.4872  -0.4709  -0.4520  -0.4177  -0.3931

          Ground-State Mulliken Net Atomic Charges

     Atom                 Charge (a.u.)    Spin (a.u.)
  --------------------------------------------------------
      1 C                     0.339677      -0.001925
      2 O                    -0.438678       0.006225
      3 H                     0.344084      -0.004894
      4 C                     0.258269      -0.006579
      5 O                    -0.372500       0.008903
      6 O                    -0.401058      -0.000605
      7 O                    -0.293219       0.000005
      8 H                     0.344513      -0.000024
      9 O                    -0.007954       0.329462
     10 O                    -0.137298       0.669091
     11 H                     0.364164       0.000341
  --------------------------------------------------------
  Sum of atomic charges =     0.000000

                    Cartesian Multipole Moments
 -----------------------------------------------------------------
    Charge (ESU x 10^10)
                 0.0000
    Dipole Moment (Debye)
         X      -5.6791      Y       2.9238      Z      -1.7742
       Tot       6.6294
    Quadrupole Moments (Debye-Ang)
        XX     -43.6302     XY       3.2287     YY     -42.1349
        XZ       0.0061     YZ       0.7673     ZZ     -50.8002

             Standard Nuclear Orientation (Angstroms)
    I     Atom           X                Y                Z
 ----------------------------------------------------------------
    1      C       0.6072589961     0.0995536333     0.2712972596
    2      O       1.4192510827    -0.7394525853     0.5581470688
    3      H      -2.1260616732     1.1525978741     0.6669314370
    4      C      -0.8871968854    -0.2005200305     0.1817492238
    5      O      -1.1409735157    -1.4918035736     0.0903525274
    6      O      -1.6789620209     0.6859210684    -0.2986863993
    7      O       0.9279555595     1.3610302873     0.0358978246
    8      H       0.1400538454     1.8737465506    -0.2114863691
    9      O      -1.2145784868     0.1862517434     2.0046042293
   10      O      -2.1040940641     1.1019168681     1.9304935257
   11      H      -2.0845900376    -1.6251677360    -0.0954806277
 ----------------------------------------------------------------

 Total job time:  7174.31s(wall), 103708.69s(cpu)
        *  Thank you very much for using Q-Chem.  Have a nice day.  *
