 Q-Chem 5.4, Q-Chem, Inc., Pleasanton, CA (2021)
 Q-Chem 5.4.1 for Intel X86 EM64T Linux

User input:
--------------------------------------------------------------
$molecule
0 1
C         2.4301211961   -0.7823617346   -0.9646096491
O         3.4470897200   -1.7444693278   -1.1283516768
C         2.9370413024    0.1640318941    0.1210277831
O         2.4601117369    0.1121244988    1.2343075541
C         4.0401718010    1.1072572724   -0.2655890853
C         4.7035914159    1.7488622003    0.9324724941
O         5.4066166217    0.6931271476    1.5931411505
O         5.4804395250    0.9774291959    2.9892893765
C         5.6647576675    2.8591677573    0.5213136613
O         4.8614149499    3.9075439135    0.0297152537
O         6.4781150860    3.2852253438    1.5880230493
H         1.5059617638   -1.2534377728   -0.6324137663
H         3.0486791513   -2.5606975674   -1.4514422517
H         3.6073850676    1.8731390072   -0.9112978248
H         4.7715359905    0.5726672172   -0.8755795175
H         3.9580375362    2.1552801008    1.6176943370
H         4.6900862653    0.5281185805    3.3260354899
H         6.3546937435    2.5079940771   -0.2469929405
H         5.4285753976    4.5274198718   -0.4423700398
H         5.9166838069    3.4558097409    2.3550505409
O         2.2215580077   -0.0250216584   -2.1300182767
H         1.6404765470   -0.5219130580   -2.7174183616
$end

$rem
BASIS = 6-311++G(2df,2p)
GUI = 2
JOB_TYPE = Frequency
METHOD = wB97M-V
SOLVENT_METHOD = SMD
SCF_ALGORITHM = DIIS_GDM
MAX_SCF_CYCLES = 400
SCF_CONVERGENCE = 7
THRESH = 12
$end
--------------------------------------------------------------

   15    -723.0915412667      6.17e-08  Convergence criterion met
 Total energy in the final basis set =     -723.0836253333
   14    -723.0915410080      8.33e-08  Convergence criterion met
 Total energy in the final basis set =     -723.0836241531
   13    -723.0915394632      7.32e-08  Convergence criterion met
 Total energy in the final basis set =     -723.0836242105
   13    -723.0915404915      8.39e-08  Convergence criterion met
 Total energy in the final basis set =     -723.0836243132
   15    -723.0915402939      3.85e-08  Convergence criterion met
 Total energy in the final basis set =     -723.0836242819
   13    -723.0915360494      7.21e-08  Convergence criterion met
 Total energy in the final basis set =     -723.0836243062
   13    -723.0915446676      7.36e-08  Convergence criterion met
 Total energy in the final basis set =     -723.0836242633
   13    -723.0915384385      9.56e-08  Convergence criterion met
 Total energy in the final basis set =     -723.0836244452
   13    -723.0915361913      7.29e-08  Convergence criterion met
 Total energy in the final basis set =     -723.0836243957
   13    -723.0915404506      9.00e-08  Convergence criterion met
 Total energy in the final basis set =     -723.0836249889
   13    -723.0915413923      8.23e-08  Convergence criterion met
 Total energy in the final basis set =     -723.0836249871
   13    -723.0915411507      7.33e-08  Convergence criterion met
 Total energy in the final basis set =     -723.0836250544
   13    -723.0915408047      7.59e-08  Convergence criterion met
 Total energy in the final basis set =     -723.0836250341
   13    -723.0915400073      8.03e-08  Convergence criterion met
 Total energy in the final basis set =     -723.0836249279
   13    -723.0915417227      7.28e-08  Convergence criterion met
 Total energy in the final basis set =     -723.0836249355

                    Orbital Energies (a.u.)
 --------------------------------------------------------------

 Alpha MOs
 -- Occupied --
-19.4029 -19.3951 -19.3530 -19.3521 -19.3482 -19.3463 -19.3443 -10.4539
-10.4517 -10.4453 -10.4038 -10.3537  -1.2706  -1.2147  -1.2013  -1.1924
 -1.1433  -1.1351  -1.0537  -0.9138  -0.8538  -0.8094  -0.7395  -0.6848
 -0.6680  -0.6586  -0.6552  -0.6417  -0.6328  -0.5962  -0.5841  -0.5676
 -0.5525  -0.5444  -0.5438  -0.5320  -0.5137  -0.4962  -0.4775  -0.4637
 -0.4551  -0.4332  -0.4256  -0.4184  -0.4167  -0.4071  -0.3901  -0.3722

          Ground-State Mulliken Net Atomic Charges

     Atom                 Charge (a.u.)
  ----------------------------------------
      1 C                    -0.244529
      2 O                    -0.369316
      3 C                     0.502747
      4 O                    -0.419234
      5 C                    -0.575994
      6 C                    -0.061284
      7 O                    -0.099976
      8 O                    -0.314987
      9 C                    -0.273482
     10 O                    -0.411897
     11 O                    -0.463637
     12 H                     0.250011
     13 H                     0.345060
     14 H                     0.230464
     15 H                     0.294658
     16 H                     0.319712
     17 H                     0.356415
     18 H                     0.292213
     19 H                     0.336569
     20 H                     0.347461
     21 O                    -0.389714
     22 H                     0.348741
  ----------------------------------------
  Sum of atomic charges =     0.000000

                    Cartesian Multipole Moments
 -----------------------------------------------------------------
    Charge (ESU x 10^10)
                 0.0000
    Dipole Moment (Debye)
         X      -4.3993      Y      -1.8045      Z      -4.5716
       Tot       6.5962
    Quadrupole Moments (Debye-Ang)
        XX    -110.7724     XY       0.7106     YY     -60.0192
        XZ     -18.3560     YZ       2.7272     ZZ     -64.3092

             Standard Nuclear Orientation (Angstroms)
    I     Atom           X                Y                Z
 ----------------------------------------------------------------
    1      C       2.4301211961    -0.7823617346    -0.9646096491
    2      O       3.4470897200    -1.7444693278    -1.1283516768
    3      C       2.9370413024     0.1640318941     0.1210277831
    4      O       2.4601117369     0.1121244988     1.2343075541
    5      C       4.0401718010     1.1072572724    -0.2655890853
    6      C       4.7035914159     1.7488622003     0.9324724941
    7      O       5.4066166217     0.6931271476     1.5931411505
    8      O       5.4804395250     0.9774291959     2.9892893765
    9      C       5.6647576675     2.8591677573     0.5213136613
   10      O       4.8614149499     3.9075439135     0.0297152537
   11      O       6.4781150860     3.2852253438     1.5880230493
   12      H       1.5059617638    -1.2534377728    -0.6324137663
   13      H       3.0486791513    -2.5606975674    -1.4514422517
   14      H       3.6073850676     1.8731390072    -0.9112978248
   15      H       4.7715359905     0.5726672172    -0.8755795175
   16      H       3.9580375362     2.1552801008     1.6176943370
   17      H       4.6900862653     0.5281185805     3.3260354899
   18      H       6.3546937435     2.5079940771    -0.2469929405
   19      H       5.4285753976     4.5274198718    -0.4423700398
   20      H       5.9166838069     3.4558097409     2.3550505409
   21      O       2.2215580077    -0.0250216584    -2.1300182767
   22      H       1.6404765470    -0.5219130580    -2.7174183616
 ----------------------------------------------------------------

 Frequency:        29.26                  44.75                  55.58
 Force Cnst:      0.0037                 0.0064                 0.0101
 Red. Mass:       7.2668                 5.4317                 5.5416
 IR Intens:        0.454                  8.611                 13.771
 Frequency:        72.41                  89.31                 128.40
 Force Cnst:      0.0210                 0.0226                 0.0524
 Red. Mass:       6.8102                 4.8182                 5.3916
 IR Intens:        8.257                  4.428                 12.802
 Frequency:       199.09                 218.70                 231.24
 Force Cnst:      0.0920                 0.1574                 0.0638
 Red. Mass:       3.9414                 5.5870                 2.0255
 IR Intens:        9.053                 11.700                118.963
 Frequency:       236.20                 257.78                 271.67
 Force Cnst:      0.0562                 0.0444                 0.0682
 Red. Mass:       1.7083                 1.1333                 1.5673
 IR Intens:       57.204                201.340                 26.174
 Frequency:       281.87                 285.70                 324.15
 Force Cnst:      0.0527                 0.0781                 0.0938
 Red. Mass:       1.1269                 1.6234                 1.5148
 IR Intens:      210.345                107.628                169.974
 Frequency:       351.43                 428.71                 445.44
 Force Cnst:      0.2419                 1.0196                 0.4825
 Red. Mass:       3.3250                 9.4155                 4.1274
 IR Intens:      128.814                 25.260                 24.468
 Frequency:       470.92                 527.92                 584.87
 Force Cnst:      0.5011                 0.8247                 0.5695
 Red. Mass:       3.8349                 5.0221                 2.8257
 IR Intens:      112.988                 59.801                  7.927
 Frequency:       611.87                 618.14                 691.41
 Force Cnst:      1.2557                 1.1711                 1.1324
 Red. Mass:       5.6928                 5.2022                 4.0205
 IR Intens:       43.393                 14.739                 11.414
 Frequency:       834.91                 872.83                1018.06
 Force Cnst:      1.3501                 1.4661                 2.4527
 Red. Mass:       3.2873                 3.2662                 4.0164
 IR Intens:        4.008                  6.645                126.603
 Frequency:      1025.31                1078.76                1099.29
 Force Cnst:      2.2944                 1.7436                 1.5141
 Red. Mass:       3.7043                 2.5430                 2.1265
 IR Intens:       31.342                 70.762                 56.325
 Frequency:      1122.69                1191.15                1204.39
 Force Cnst:      1.6356                 1.5504                 1.0106
 Red. Mass:       2.2025                 1.8546                 1.1825
 IR Intens:       15.124                 69.463                191.392
 Frequency:      1212.43                1227.49                1238.41
 Force Cnst:      1.5206                 1.2701                 1.3567
 Red. Mass:       1.7557                 1.4307                 1.5014
 IR Intens:      108.502                 23.416                 12.346
 Frequency:      1251.35                1262.95                1271.83
 Force Cnst:      2.1550                 2.8133                 1.4801
 Red. Mass:       2.3358                 2.9936                 1.5530
 IR Intens:      184.099                345.259                131.538
 Frequency:      1295.21                1340.39                1368.24
 Force Cnst:      2.4854                 1.5818                 1.6071
 Red. Mass:       2.5146                 1.4943                 1.4570
 IR Intens:      268.512                 42.234                  9.739
 Frequency:      1400.18                1407.11                1410.08
 Force Cnst:      1.3929                 1.5240                 1.4179
 Red. Mass:       1.2059                 1.3064                 1.2104
 IR Intens:       99.907                 40.006                 19.466
 Frequency:      1415.65                1437.69                1481.57
 Force Cnst:      1.6849                 1.6268                 2.6453
 Red. Mass:       1.4270                 1.3358                 2.0454
 IR Intens:      101.843                 60.584                 11.953
 Frequency:      1482.96                1785.62                3075.09
 Force Cnst:      2.3613                20.8483                 5.9297
 Red. Mass:       1.8224                11.0979                 1.0643
 IR Intens:       89.838                373.008                  3.630
 Frequency:      3084.61                3096.32                3108.29
 Force Cnst:      6.0777                 6.1383                 6.1998
 Red. Mass:       1.0841                 1.0867                 1.0891
 IR Intens:        6.615                 58.446                 35.462
 Frequency:      3117.30                3745.62                3797.25
 Force Cnst:      6.2859                 8.8321                 9.0569
 Red. Mass:       1.0979                 1.0685                 1.0661
 IR Intens:        5.547                113.528                113.445
 Frequency:      3820.89                3821.80                3826.86
 Force Cnst:      9.1780                 9.1810                 9.2040
 Red. Mass:       1.0670                 1.0669                 1.0667
 IR Intens:      142.783                191.861                136.761

 STANDARD THERMODYNAMIC QUANTITIES AT   298.15 K  AND     1.00 ATM

   This Molecule has  0 Imaginary Frequencies
   Zero point vibrational energy:      106.771 kcal/mol

   Atom    1 Element C  Has Mass   12.00000
   Atom    2 Element O  Has Mass   15.99491
   Atom    3 Element C  Has Mass   12.00000
   Atom    4 Element O  Has Mass   15.99491
   Atom    5 Element C  Has Mass   12.00000
   Atom    6 Element C  Has Mass   12.00000
   Atom    7 Element O  Has Mass   15.99491
   Atom    8 Element O  Has Mass   15.99491
   Atom    9 Element C  Has Mass   12.00000
   Atom   10 Element O  Has Mass   15.99491
   Atom   11 Element O  Has Mass   15.99491
   Atom   12 Element H  Has Mass    1.00783
   Atom   13 Element H  Has Mass    1.00783
   Atom   14 Element H  Has Mass    1.00783
   Atom   15 Element H  Has Mass    1.00783
   Atom   16 Element H  Has Mass    1.00783
   Atom   17 Element H  Has Mass    1.00783
   Atom   18 Element H  Has Mass    1.00783
   Atom   19 Element H  Has Mass    1.00783
   Atom   20 Element H  Has Mass    1.00783
   Atom   21 Element O  Has Mass   15.99491
   Atom   22 Element H  Has Mass    1.00783
   Molecular Mass:   182.042670 amu
   Principal axes and moments of inertia in amu*Bohr^2:
                             1           2           3
    Eigenvalues --     1210.96217  3534.64776  4181.69682
          X               0.59066     0.09581     0.80121
          Y               0.65380    -0.63878    -0.40560
          Z               0.47293     0.76340    -0.43994
   Rotational Symmetry Number is   1
   The Molecule is an Asymmetric Top
   Translational Enthalpy:        0.889 kcal/mol
   Rotational Enthalpy:           0.889 kcal/mol
   Vibrational Enthalpy:        113.992 kcal/mol
   gas constant (RT):             0.592 kcal/mol
   Translational Entropy:        41.504  cal/mol.K
   Rotational Entropy:           31.260  cal/mol.K
   Vibrational Entropy:          48.612  cal/mol.K

   Total Enthalpy:              116.362 kcal/mol
   Total Entropy:               121.376  cal/mol.K
 Total job time:  29204.33s(wall), 404033.41s(cpu)
        *  Thank you very much for using Q-Chem.  Have a nice day.  *
