 Q-Chem 5.4, Q-Chem, Inc., Pleasanton, CA (2021)
 Q-Chem 5.4.1 for Intel X86 EM64T Linux

User input:
--------------------------------------------------------------
$molecule
0 1
C         2.4241859743   -0.7974995707   -0.9454672262
O         3.4566646569   -1.6545989536   -1.3761718595
C         3.0310385498    0.0620336772    0.1626030740
O         2.6310033380   -0.0433610492    1.3088631587
C         4.1242845282    1.0141104488   -0.2513282448
C         4.7333600992    1.7315695613    0.9370991035
O         5.4322121129    0.7276149683    1.6841183398
O         5.3838092228    1.0722096105    3.0750889628
C         5.6991778187    2.8405329196    0.5299419522
O         4.9248373552    3.8106950346   -0.1386088669
O         6.3785778216    3.3803530043    1.6392806305
H         1.5836037816   -1.3698690931   -0.5399840153
H         3.0428321707   -2.3977471874   -1.8465296287
H         3.7012016192    1.7369955759   -0.9573598385
H         4.8881304300    0.4542168417   -0.8058310035
H         3.9459299593    2.1543953276    1.5708392830
H         4.5582851954    0.6242320641    3.3440945048
H         6.4854937176    2.4419418342   -0.1210782431
H         5.5440144430    4.4505787726   -0.5271075076
H         5.7020425830    3.6546641161    2.2829153946
O         1.9979184277    0.0890468977   -1.9526978115
H         1.3845404947   -0.3948181003   -2.5306928581
$end

$rem
BASIS = 6-311++G(2df,2p)
GUI = 2
JOB_TYPE = Optimization
METHOD = wB97M-V
SCF_ALGORITHM = DIIS_GDM
MAX_SCF_CYCLES = 400
GEOM_OPT_MAX_CYCLES = 150
SCF_CONVERGENCE = 7
THRESH = 12
Solvent_method = SMD
$end
--------------------------------------------------------------

   16    -723.0904638253      4.31e-08  Convergence criterion met
 Total energy in the final basis set =     -723.0826549546
   15    -723.0912839477      2.66e-08  Convergence criterion met
 Total energy in the final basis set =     -723.0833818891
   15    -723.0912935708      7.03e-08  Convergence criterion met
 Total energy in the final basis set =     -723.0834170524
   14    -723.0913490442      8.20e-08  Convergence criterion met
 Total energy in the final basis set =     -723.0834613960
   15    -723.0913822543      3.18e-08  Convergence criterion met
 Total energy in the final basis set =     -723.0834761132
   14    -723.0914206803      4.74e-08  Convergence criterion met
 Total energy in the final basis set =     -723.0835251108
   15    -723.0914369929      5.95e-08  Convergence criterion met
 Total energy in the final basis set =     -723.0835398680
   15    -723.0914610107      3.45e-08  Convergence criterion met
   14    -723.0914920662      9.52e-08  Convergence criterion met
 Total energy in the final basis set =     -723.0835859107
   15    -723.0915015221      3.30e-08  Convergence criterion met
 Total energy in the final basis set =     -723.0835944100
   15    -723.0915278721      5.22e-08  Convergence criterion met
 Total energy in the final basis set =     -723.0835979112
   15    -723.0915338063      3.91e-08  Convergence criterion met
 Total energy in the final basis set =     -723.0836201549
   15    -723.0915394717      3.07e-08  Convergence criterion met
 Total energy in the final basis set =     -723.0836236459
   15    -723.0915416117      3.29e-08  Convergence criterion met
 Total energy in the final basis set =     -723.0836248277

             Standard Nuclear Orientation (Angstroms)
    I     Atom           X                Y                Z
 ----------------------------------------------------------------
    1      C       2.4301211961    -0.7823617346    -0.9646096491
    2      O       3.4470897200    -1.7444693278    -1.1283516768
    3      C       2.9370413024     0.1640318941     0.1210277831
    4      O       2.4601117369     0.1121244988     1.2343075541
    5      C       4.0401718010     1.1072572724    -0.2655890853
    6      C       4.7035914159     1.7488622003     0.9324724941
    7      O       5.4066166217     0.6931271476     1.5931411505
    8      O       5.4804395250     0.9774291959     2.9892893765
    9      C       5.6647576675     2.8591677573     0.5213136613
   10      O       4.8614149499     3.9075439135     0.0297152537
   11      O       6.4781150860     3.2852253438     1.5880230493
   12      H       1.5059617638    -1.2534377728    -0.6324137663
   13      H       3.0486791513    -2.5606975674    -1.4514422517
   14      H       3.6073850676     1.8731390072    -0.9112978248
   15      H       4.7715359905     0.5726672172    -0.8755795175
   16      H       3.9580375362     2.1552801008     1.6176943370
   17      H       4.6900862653     0.5281185805     3.3260354899
   18      H       6.3546937435     2.5079940771    -0.2469929405
   19      H       5.4285753976     4.5274198718    -0.4423700398
   20      H       5.9166838069     3.4558097409     2.3550505409
   21      O       2.2215580077    -0.0250216584    -2.1300182767
   22      H       1.6404765470    -0.5219130580    -2.7174183616
 ----------------------------------------------------------------

   14    -723.0915412663      6.67e-08  Convergence criterion met
 Total energy in the final basis set =     -723.0836253329
 Final energy is   -723.083625332948
 **  OPTIMIZATION CONVERGED  **

                    Orbital Energies (a.u.)
 --------------------------------------------------------------

 Alpha MOs
 -- Occupied --
-19.4029 -19.3951 -19.3530 -19.3520 -19.3482 -19.3463 -19.3443 -10.4539
-10.4517 -10.4453 -10.4038 -10.3537  -1.2706  -1.2148  -1.2013  -1.1925
 -1.1434  -1.1351  -1.0537  -0.9138  -0.8539  -0.8094  -0.7395  -0.6848
 -0.6680  -0.6586  -0.6552  -0.6417  -0.6328  -0.5962  -0.5841  -0.5676
 -0.5525  -0.5444  -0.5438  -0.5320  -0.5138  -0.4962  -0.4775  -0.4637
 -0.4551  -0.4332  -0.4256  -0.4185  -0.4167  -0.4071  -0.3901  -0.3722

          Ground-State Mulliken Net Atomic Charges

     Atom                 Charge (a.u.)
  ----------------------------------------
      1 C                    -0.244562
      2 O                    -0.369309
      3 C                     0.502759
      4 O                    -0.419238
      5 C                    -0.575999
      6 C                    -0.061279
      7 O                    -0.099975
      8 O                    -0.314988
      9 C                    -0.273467
     10 O                    -0.411897
     11 O                    -0.463637
     12 H                     0.249987
     13 H                     0.345058
     14 H                     0.230463
     15 H                     0.294664
     16 H                     0.319713
     17 H                     0.356415
     18 H                     0.292211
     19 H                     0.336569
     20 H                     0.347461
     21 O                    -0.389493
     22 H                     0.348543
  ----------------------------------------
  Sum of atomic charges =     0.000000

                    Cartesian Multipole Moments
 -----------------------------------------------------------------
    Charge (ESU x 10^10)
                 0.0000
    Dipole Moment (Debye)
         X      -4.3993      Y      -1.8045      Z      -4.5696
       Tot       6.5948
    Quadrupole Moments (Debye-Ang)
        XX    -110.7712     XY       0.7109     YY     -60.0181
        XZ     -18.3529     YZ       2.7257     ZZ     -64.3200

 Total job time:  3791.00s(wall), 52036.01s(cpu)
        *  Thank you very much for using Q-Chem.  Have a nice day.  *
