 Q-Chem 5.4, Q-Chem, Inc., Pleasanton, CA (2021)
 Q-Chem 5.4.1 for Intel X86 EM64T Linux

User input:
--------------------------------------------------------------
$molecule
0 2
C        -0.0467818942   -0.2844205045   -0.2067772538
O        -0.6322274007   -1.3670698018    0.4157195353
H        -0.0518469837   -0.3592163502   -1.2954774014
C         1.3751125558   -0.1262202853    0.3010103968
H         1.8949622034   -1.0730899041    0.5015315836
O         1.8977899043    0.9480379569    0.4463101043
H        -1.3651885828   -1.6875295918   -0.1236875786
O        -0.7421776703    0.9514407369    0.1313505952
O        -1.8868869025    1.0151928884   -0.4902222097
$end

$rem
BASIS = 6-311++G(2df,2p)
GUI = 2
JOB_TYPE = Frequency
METHOD = wB97M-V
SOLVENT_METHOD = SMD
SCF_ALGORITHM = DIIS_GDM
MAX_SCF_CYCLES = 400
SCF_CONVERGENCE = 7
THRESH = 12
UNRESTRICTED = 1
SYMMETRY_IGNORE = 1
$end
--------------------------------------------------------------

   22    -378.7943291001      3.04e-08  Convergence criterion met
 Total energy in the final basis set =     -378.7891172954
   19    -378.7943232165      4.72e-08  Convergence criterion met
 Total energy in the final basis set =     -378.7891162721
   19    -378.7943331237      4.64e-08  Convergence criterion met
 Total energy in the final basis set =     -378.7891164626
   19    -378.7943200759      4.93e-08  Convergence criterion met
 Total energy in the final basis set =     -378.7891164992
   19    -378.7943367024      4.40e-08  Convergence criterion met
 Total energy in the final basis set =     -378.7891166745
   19    -378.7943322305      5.38e-08  Convergence criterion met
 Total energy in the final basis set =     -378.7891163581
   19    -378.7943238867      5.13e-08  Convergence criterion met
 Total energy in the final basis set =     -378.7891161494
   19    -378.7943326860      4.75e-08  Convergence criterion met
 Total energy in the final basis set =     -378.7891169699
   19    -378.7943288144      5.10e-08  Convergence criterion met
 Total energy in the final basis set =     -378.7891169114
   19    -378.7943284189      5.05e-08  Convergence criterion met
 Total energy in the final basis set =     -378.7891165791
   19    -378.7943283639      4.98e-08  Convergence criterion met
 Total energy in the final basis set =     -378.7891165940
   19    -378.7943292183      5.00e-08  Convergence criterion met
 Total energy in the final basis set =     -378.7891171871
   19    -378.7943288263      4.73e-08  Convergence criterion met
 Total energy in the final basis set =     -378.7891172479
   19    -378.7943289690      4.91e-08  Convergence criterion met
 Total energy in the final basis set =     -378.7891171181
   19    -378.7943288319      7.14e-08  Convergence criterion met
 Total energy in the final basis set =     -378.7891170731

                    Orbital Energies (a.u.)
 --------------------------------------------------------------

 Alpha MOs
 -- Occupied --
-19.4692 -19.4275 -19.3712 -19.3645 -10.4717 -10.4572  -1.3551  -1.2160
 -1.1986  -1.0202  -0.8505  -0.7292  -0.6883  -0.6630  -0.6468  -0.6042
 -0.5882  -0.5666  -0.5248  -0.4943  -0.4613  -0.4173  -0.4099  -0.3858

 Beta MOs
 -- Occupied --
-19.4594 -19.4081 -19.3709 -19.3645 -10.4721 -10.4572  -1.3297  -1.2150
 -1.1971  -0.9878  -0.8420  -0.7237  -0.6806  -0.6502  -0.6355  -0.5858
 -0.5606  -0.5424  -0.5239  -0.4809  -0.4557  -0.4054  -0.3797

          Ground-State Mulliken Net Atomic Charges

     Atom                 Charge (a.u.)    Spin (a.u.)
  --------------------------------------------------------
      1 C                    -0.045385      -0.005045
      2 O                    -0.392754       0.003838
      3 H                     0.262013       0.005565
      4 C                     0.157463       0.001021
      5 H                     0.191481      -0.000491
      6 O                    -0.351852       0.001993
      7 H                     0.361364       0.001025
      8 O                     0.035453       0.293733
      9 O                    -0.217785       0.698361
  --------------------------------------------------------
  Sum of atomic charges =     0.000000

                    Cartesian Multipole Moments
 -----------------------------------------------------------------
    Charge (ESU x 10^10)
                 0.0000
    Dipole Moment (Debye)
         X      -0.0248      Y      -4.8638      Z      -2.4158
       Tot       5.4308
    Quadrupole Moments (Debye-Ang)
        XX     -38.2074     XY      -0.2667     YY     -36.9653
        XZ      -0.5292     YZ       1.4111     ZZ     -33.3466

             Standard Nuclear Orientation (Angstroms)
    I     Atom           X                Y                Z
 ----------------------------------------------------------------
    1      C      -0.0467818942    -0.2844205045    -0.2067772538
    2      O      -0.6322274007    -1.3670698018     0.4157195353
    3      H      -0.0518469837    -0.3592163502    -1.2954774014
    4      C       1.3751125558    -0.1262202853     0.3010103968
    5      H       1.8949622034    -1.0730899041     0.5015315836
    6      O       1.8977899043     0.9480379569     0.4463101043
    7      H      -1.3651885828    -1.6875295918    -0.1236875786
    8      O      -0.7421776703     0.9514407369     0.1313505952
    9      O      -1.8868869025     1.0151928884    -0.4902222097
 ----------------------------------------------------------------

 Frequency:        70.85                  77.03                 223.70
 Force Cnst:      0.0127                 0.0185                 0.2915
 Red. Mass:       4.2832                 5.2915                 9.8855
 IR Intens:       21.076                  3.164                 18.592
 Frequency:       320.67                 330.12                 486.04
 Force Cnst:      0.2801                 0.0748                 0.6407
 Red. Mass:       4.6235                 1.1642                 4.6032
 IR Intens:       14.511                196.834                  5.983
 Frequency:       531.70                 642.94                 810.85
 Force Cnst:      1.2709                 1.4488                 1.0778
 Red. Mass:       7.6299                 5.9488                 2.7823
 IR Intens:       14.058                134.773                 41.927
 Frequency:      1024.79                1049.09                1131.08
 Force Cnst:      2.2270                 1.3735                 3.3905
 Red. Mass:       3.5991                 2.1182                 4.4980
 IR Intens:      118.503                 17.494                191.258
 Frequency:      1230.79                1269.09                1336.13
 Force Cnst:      1.0389                12.5321                 1.2778
 Red. Mass:       1.1640                13.2065                 1.2149
 IR Intens:      105.970                 41.548                  2.296
 Frequency:      1385.45                1456.31                1810.69
 Force Cnst:      1.3289                 2.1016                20.3804
 Red. Mass:       1.1751                 1.6818                10.5505
 IR Intens:       42.720                  7.816                300.504
 Frequency:      3033.96                3098.92                3813.90
 Force Cnst:      5.9090                 6.1340                 9.1410
 Red. Mass:       1.0895                 1.0841                 1.0666
 IR Intens:       50.778                 15.352                192.512

 STANDARD THERMODYNAMIC QUANTITIES AT   298.15 K  AND     1.00 ATM

   This Molecule has  0 Imaginary Frequencies
   Zero point vibrational energy:       35.931 kcal/mol

   Atom    1 Element C  Has Mass   12.00000
   Atom    2 Element O  Has Mass   15.99491
   Atom    3 Element H  Has Mass    1.00783
   Atom    4 Element C  Has Mass   12.00000
   Atom    5 Element H  Has Mass    1.00783
   Atom    6 Element O  Has Mass   15.99491
   Atom    7 Element H  Has Mass    1.00783
   Atom    8 Element O  Has Mass   15.99491
   Atom    9 Element O  Has Mass   15.99491
   Molecular Mass:    91.003130 amu
   Principal axes and moments of inertia in amu*Bohr^2:
                             1           2           3
    Eigenvalues --      302.18119   604.87511   864.45036
          X               0.98106     0.04495    -0.18840
          Y              -0.02082     0.99154     0.12815
          Z               0.19256    -0.12180     0.97370
   Rotational Symmetry Number is   1
   The Molecule is an Asymmetric Top
   Translational Enthalpy:        0.889 kcal/mol
   Rotational Enthalpy:           0.889 kcal/mol
   Vibrational Enthalpy:         38.229 kcal/mol
   gas constant (RT):             0.592 kcal/mol
   Translational Entropy:        39.437  cal/mol.K
   Rotational Entropy:           26.560  cal/mol.K
   Vibrational Entropy:          14.791  cal/mol.K

   Total Enthalpy:               40.599 kcal/mol
   Total Entropy:                80.788  cal/mol.K
 Total job time:  4811.03s(wall), 30370.09s(cpu)
        *  Thank you very much for using Q-Chem.  Have a nice day.  *
