 Q-Chem 5.4, Q-Chem, Inc., Pleasanton, CA (2021)
 Q-Chem 5.4.1 for Intel X86 EM64T Linux

User input:
--------------------------------------------------------------
$molecule
0 2
C        -0.0009846490   -0.2511130240   -0.2963964302
O        -0.5261616525   -1.4549414200    0.0879488149
H         0.0198233184   -0.0872380441   -1.3749375884
C         1.3868676933   -0.1121508494    0.3177631488
H         1.5183328297   -0.6381079036    1.2784292080
O         2.2550135237    0.5175812822   -0.2107078023
H        -1.4040694052   -1.5474866237   -0.2991789468
O        -0.7786462651    0.8610635731    0.2642115877
O        -2.0274201641    0.7295181541   -0.0873742200
$end

$rem
BASIS = 6-311++G(2df,2p)
GUI = 2
JOB_TYPE = Optimization
METHOD = wB97M-V
SCF_ALGORITHM = DIIS_GDM
MAX_SCF_CYCLES = 400
GEOM_OPT_MAX_CYCLES = 150
SCF_CONVERGENCE = 7
THRESH = 12
UNRESTRICTED = 1
SOLVENT_METHOD = smd
$end
--------------------------------------------------------------

   22    -378.7917073516      3.81e-08  Convergence criterion met
 Total energy in the final basis set =     -378.7864968669
   19    -378.7922538780      6.29e-08  Convergence criterion met
 Total energy in the final basis set =     -378.7870818989
   19    -378.7923628919      9.36e-08  Convergence criterion met
 Total energy in the final basis set =     -378.7872132586
   19    -378.7928162783      5.43e-08  Convergence criterion met
 Total energy in the final basis set =     -378.7876751519
   19    -378.7930752545      4.20e-08  Convergence criterion met
 Total energy in the final basis set =     -378.7878845842
   19    -378.7932688406      6.73e-08  Convergence criterion met
 Total energy in the final basis set =     -378.7880305080
   20    -378.7934075103      4.96e-08  Convergence criterion met
 Total energy in the final basis set =     -378.7881342242
   19    -378.7935665927      7.13e-08  Convergence criterion met
   19    -378.7941301435      6.24e-08  Convergence criterion met
 Total energy in the final basis set =     -378.7888521279
   19    -378.7942540075      4.74e-08  Convergence criterion met
 Total energy in the final basis set =     -378.7889786518
   18    -378.7943268550      9.82e-08  Convergence criterion met
 Total energy in the final basis set =     -378.7890733735
   18    -378.7943308541      9.16e-08  Convergence criterion met
 Total energy in the final basis set =     -378.7891088443
   19    -378.7943318659      6.90e-08  Convergence criterion met
 Total energy in the final basis set =     -378.7891155440
   18    -378.7943256285      8.42e-08  Convergence criterion met
 Total energy in the final basis set =     -378.7891166661

             Standard Nuclear Orientation (Angstroms)
    I     Atom           X                Y                Z
 ----------------------------------------------------------------
    1      C      -0.0467818942    -0.2844205045    -0.2067772538
    2      O      -0.6322274007    -1.3670698018     0.4157195353
    3      H      -0.0518469837    -0.3592163502    -1.2954774014
    4      C       1.3751125558    -0.1262202853     0.3010103968
    5      H       1.8949622034    -1.0730899041     0.5015315836
    6      O       1.8977899043     0.9480379569     0.4463101043
    7      H      -1.3651885828    -1.6875295918    -0.1236875786
    8      O      -0.7421776703     0.9514407369     0.1313505952
    9      O      -1.8868869025     1.0151928884    -0.4902222097
 ----------------------------------------------------------------

   19    -378.7943291002      4.73e-08  Convergence criterion met
 Total energy in the final basis set =     -378.7891172954
 Final energy is   -378.789117295434
 **  OPTIMIZATION CONVERGED  **

                    Orbital Energies (a.u.)
 --------------------------------------------------------------

 Alpha MOs
 -- Occupied --
-19.4692 -19.4274 -19.3712 -19.3645 -10.4717 -10.4572  -1.3553  -1.2160
 -1.1986  -1.0202  -0.8505  -0.7293  -0.6883  -0.6630  -0.6468  -0.6043
 -0.5882  -0.5666  -0.5248  -0.4943  -0.4613  -0.4172  -0.4098  -0.3858

 Beta MOs
 -- Occupied --
-19.4594 -19.4080 -19.3709 -19.3645 -10.4721 -10.4572  -1.3300  -1.2150
 -1.1971  -0.9877  -0.8419  -0.7237  -0.6806  -0.6502  -0.6356  -0.5858
 -0.5607  -0.5425  -0.5239  -0.4810  -0.4557  -0.4053  -0.3796

          Ground-State Mulliken Net Atomic Charges

     Atom                 Charge (a.u.)    Spin (a.u.)
  --------------------------------------------------------
      1 C                    -0.045428      -0.005049
      2 O                    -0.392731       0.003836
      3 H                     0.261995       0.005579
      4 C                     0.157502       0.001030
      5 H                     0.191478      -0.000491
      6 O                    -0.351852       0.001993
      7 H                     0.361358       0.001024
      8 O                     0.035649       0.293975
      9 O                    -0.217970       0.698103
  --------------------------------------------------------
  Sum of atomic charges =    -0.000000

                    Cartesian Multipole Moments
 -----------------------------------------------------------------
    Charge (ESU x 10^10)
                -0.0000
    Dipole Moment (Debye)
         X      -0.0238      Y      -4.8638      Z      -2.4163
       Tot       5.4310
    Quadrupole Moments (Debye-Ang)
        XX     -38.2109     XY      -0.2661     YY     -36.9648
        XZ      -0.5289     YZ       1.4105     ZZ     -33.3451

 Total job time:  2049.14s(wall), 8046.84s(cpu)
        *  Thank you very much for using Q-Chem.  Have a nice day.  *
