 Q-Chem 5.4, Q-Chem, Inc., Pleasanton, CA (2021)
 Q-Chem 5.4.1 for Intel X86 EM64T Linux

User input:
--------------------------------------------------------------
$molecule
0 2
O         5.3426432057    1.4426019749    3.6221436387
O         4.2178912959    1.0961950527    4.1842902379
C         4.3524453212    1.0745291041    5.6421328326
O         4.4558058391    2.3611291603    6.1412404909
H         3.4205024726    0.6315603924    5.9760879397
H         5.2186197102    0.4563593161    5.8629628243
H         5.3722897553    2.6530216996    6.0695486361
$end

$rem
BASIS = 6-311++G(2df,2p)
GUI = 2
JOB_TYPE = Frequency
METHOD = wB97M-V
SOLVENT_METHOD = SMD
SCF_ALGORITHM = DIIS_GDM
MAX_SCF_CYCLES = 400
SCF_CONVERGENCE = 7
THRESH = 12
$end
--------------------------------------------------------------

   19    -265.4656666178      5.77e-08  Convergence criterion met
 Total energy in the final basis set =     -265.4627414177
   17    -265.4656658755      7.69e-08  Convergence criterion met
 Total energy in the final basis set =     -265.4627408009
   17    -265.4656660722      7.09e-08  Convergence criterion met
 Total energy in the final basis set =     -265.4627407465
   17    -265.4656665292      7.45e-08  Convergence criterion met
 Total energy in the final basis set =     -265.4627414400
   18    -265.4656665735      3.75e-08  Convergence criterion met
 Total energy in the final basis set =     -265.4627412625
   17    -265.4656661785      8.00e-08  Convergence criterion met
 Total energy in the final basis set =     -265.4627411805
   17    -265.4656664984      8.64e-08  Convergence criterion met
 Total energy in the final basis set =     -265.4627410961
   17    -265.4656662418      7.79e-08  Convergence criterion met
 Total energy in the final basis set =     -265.4627412739
   17    -265.4656671855      7.71e-08  Convergence criterion met
 Total energy in the final basis set =     -265.4627413040
   17    -265.4656661755      7.89e-08  Convergence criterion met
 Total energy in the final basis set =     -265.4627404485
   16    -265.4656653721      9.17e-08  Convergence criterion met
 Total energy in the final basis set =     -265.4627406989
   17    -265.4656671390      6.80e-08  Convergence criterion met
 Total energy in the final basis set =     -265.4627412351
   17    -265.4656657503      7.76e-08  Convergence criterion met
 Total energy in the final basis set =     -265.4627412536
   17    -265.4656669887      7.68e-08  Convergence criterion met
 Total energy in the final basis set =     -265.4627414738
   17    -265.4656661919      6.74e-08  Convergence criterion met
 Total energy in the final basis set =     -265.4627413061

                    Orbital Energies (a.u.)
 --------------------------------------------------------------

 Alpha MOs
 -- Occupied --
-19.4607 -19.4201 -19.3613 -10.4495  -1.3460  -1.1873  -1.0083  -0.7984
 -0.6769  -0.6498  -0.6361  -0.5877  -0.5459  -0.4731  -0.4504  -0.4028
 -0.4017

 Beta MOs
 -- Occupied --
-19.4507 -19.4010 -19.3610 -10.4499  -1.3201  -1.1853  -0.9740  -0.7882
 -0.6692  -0.6295  -0.6189  -0.5482  -0.5209  -0.4617  -0.4460  -0.3845

          Ground-State Mulliken Net Atomic Charges

     Atom                 Charge (a.u.)    Spin (a.u.)
  --------------------------------------------------------
      1 O                    -0.235781       0.686556
      2 O                     0.014122       0.307082
      3 C                    -0.125471      -0.005281
      4 O                    -0.412178       0.002760
      5 H                     0.190332      -0.000085
      6 H                     0.223000       0.007855
      7 H                     0.345976       0.001111
  --------------------------------------------------------
  Sum of atomic charges =    -0.000000

                    Cartesian Multipole Moments
 -----------------------------------------------------------------
    Charge (ESU x 10^10)
                 0.0000
    Dipole Moment (Debye)
         X       0.8418      Y      -1.3202      Z       2.7485
       Tot       3.1632
    Quadrupole Moments (Debye-Ang)
        XX     -14.3206     XY      -2.1842     YY     -26.0605
        XZ      19.3312     YZ      -4.4137     ZZ       0.1202

             Standard Nuclear Orientation (Angstroms)
    I     Atom           X                Y                Z
 ----------------------------------------------------------------
    1      O       5.3426432057     1.4426019749     3.6221436387
    2      O       4.2178912959     1.0961950527     4.1842902379
    3      C       4.3524453212     1.0745291041     5.6421328326
    4      O       4.4558058391     2.3611291603     6.1412404909
    5      H       3.4205024726     0.6315603924     5.9760879397
    6      H       5.2186197102     0.4563593161     5.8629628243
    7      H       5.3722897553     2.6530216996     6.0695486361
 ----------------------------------------------------------------

 Frequency:       109.48                 338.62                 440.64
 Force Cnst:      0.0365                 0.1046                 0.2505
 Red. Mass:       5.1685                 1.5477                 2.1897
 IR Intens:       10.870                141.866                102.532
 Frequency:       601.92                 854.44                1054.17
 Force Cnst:      1.0974                 2.7864                 0.9306
 Red. Mass:       5.1408                 6.4778                 1.4213
 IR Intens:       18.540                170.204                147.125
 Frequency:      1120.03                1233.86                1298.80
 Force Cnst:      3.8274                 2.2820                 1.6196
 Red. Mass:       5.1783                 2.5441                 1.6295
 IR Intens:      185.030                 15.258                 36.225
 Frequency:      1398.69                1422.32                1485.61
 Force Cnst:      1.4375                 1.4323                 1.4452
 Red. Mass:       1.2472                 1.2017                 1.1114
 IR Intens:       24.260                 27.280                  5.123
 Frequency:      3115.65                3202.85                3816.08
 Force Cnst:      6.0411                 6.7422                 9.1494
 Red. Mass:       1.0563                 1.1155                 1.0664
 IR Intens:       26.735                  8.138                149.840

 STANDARD THERMODYNAMIC QUANTITIES AT   298.15 K  AND     1.00 ATM

   This Molecule has  0 Imaginary Frequencies
   Zero point vibrational energy:       30.726 kcal/mol

   Atom    1 Element O  Has Mass   15.99491
   Atom    2 Element O  Has Mass   15.99491
   Atom    3 Element C  Has Mass   12.00000
   Atom    4 Element O  Has Mass   15.99491
   Atom    5 Element H  Has Mass    1.00783
   Atom    6 Element H  Has Mass    1.00783
   Atom    7 Element H  Has Mass    1.00783
   Molecular Mass:    63.008220 amu
   Principal axes and moments of inertia in amu*Bohr^2:
                             1           2           3
    Eigenvalues --       89.81675   299.51154   350.14569
          X              -0.21830     0.63102     0.74442
          Y               0.28641     0.77065    -0.56926
          Z               0.93291    -0.08894     0.34896
   Rotational Symmetry Number is   1
   The Molecule is an Asymmetric Top
   Translational Enthalpy:        0.889 kcal/mol
   Rotational Enthalpy:           0.889 kcal/mol
   Vibrational Enthalpy:         31.783 kcal/mol
   gas constant (RT):             0.592 kcal/mol
   Translational Entropy:        38.341  cal/mol.K
   Rotational Entropy:           23.758  cal/mol.K
   Vibrational Entropy:           6.178  cal/mol.K

   Total Enthalpy:               34.153 kcal/mol
   Total Entropy:                68.277  cal/mol.K
 Total job time:  853.40s(wall), 12724.65s(cpu)
        *  Thank you very much for using Q-Chem.  Have a nice day.  *
