 Q-Chem 5.4, Q-Chem, Inc., Pleasanton, CA (2021)
 Q-Chem 5.4.1 for Intel X86 EM64T Linux

User input:
--------------------------------------------------------------
$molecule
0 2
O         5.3484570170    1.4934840709    3.6483680442
O         4.2247100789    1.0790828452    4.1863631278
C         4.3500516881    1.0693750695    5.6478418296
O         4.4591071828    2.3571928332    6.1429942645
H         3.4094584795    0.6333950944    5.9814140107
H         5.2099845174    0.4369594777    5.8770033951
H         5.3784286363    2.6459073090    6.0144219282
$end

$rem
BASIS = 6-311++G(2df,2p)
GUI = 2
JOB_TYPE = Optimization
METHOD = wB97M-V
SCF_ALGORITHM = DIIS_GDM
MAX_SCF_CYCLES = 400
GEOM_OPT_MAX_CYCLES = 150
SCF_CONVERGENCE = 7
THRESH = 12
Solvent_method = SMD
$end
--------------------------------------------------------------

   19    -265.4653543310      7.04e-08  Convergence criterion met
 Total energy in the final basis set =     -265.4624645436
   18    -265.4656218471      5.50e-08  Convergence criterion met
 Total energy in the final basis set =     -265.4627067737
   18    -265.4656565888      4.19e-08  Convergence criterion met
 Total energy in the final basis set =     -265.4627318500
   18    -265.4656655005      5.63e-08  Convergence criterion met
 Total energy in the final basis set =     -265.4627385241
   18    -265.4656660966      4.61e-08  Convergence criterion met
 Total energy in the final basis set =     -265.4627411021

             Standard Nuclear Orientation (Angstroms)
    I     Atom           X                Y                Z
 ----------------------------------------------------------------
    1      O       5.3426432057     1.4426019749     3.6221436387
    2      O       4.2178912959     1.0961950527     4.1842902379
    3      C       4.3524453212     1.0745291041     5.6421328326
    4      O       4.4558058391     2.3611291603     6.1412404909
    5      H       3.4205024726     0.6315603924     5.9760879397
    6      H       5.2186197102     0.4563593161     5.8629628243
    7      H       5.3722897553     2.6530216996     6.0695486361
 ----------------------------------------------------------------

   17    -265.4656666182      8.83e-08  Convergence criterion met
 Total energy in the final basis set =     -265.4627414181
 Final energy is   -265.462741418089
 **  OPTIMIZATION CONVERGED  **

                    Orbital Energies (a.u.)
 --------------------------------------------------------------

 Alpha MOs
 -- Occupied --
-19.4607 -19.4201 -19.3613 -10.4495  -1.3459  -1.1873  -1.0083  -0.7985
 -0.6769  -0.6498  -0.6361  -0.5877  -0.5459  -0.4731  -0.4504  -0.4028
 -0.4017

 Beta MOs
 -- Occupied --
-19.4507 -19.4010 -19.3610 -10.4499  -1.3201  -1.1853  -0.9740  -0.7883
 -0.6692  -0.6295  -0.6189  -0.5482  -0.5210  -0.4617  -0.4460  -0.3845

          Ground-State Mulliken Net Atomic Charges

     Atom                 Charge (a.u.)    Spin (a.u.)
  --------------------------------------------------------
      1 O                    -0.235812       0.686562
      2 O                     0.014146       0.307077
      3 C                    -0.125433      -0.005279
      4 O                    -0.412201       0.002753
      5 H                     0.190343      -0.000085
      6 H                     0.222991       0.007858
      7 H                     0.345967       0.001114
  --------------------------------------------------------
  Sum of atomic charges =    -0.000000

                    Cartesian Multipole Moments
 -----------------------------------------------------------------
    Charge (ESU x 10^10)
                 0.0000
    Dipole Moment (Debye)
         X       0.8422      Y      -1.3203      Z       2.7506
       Tot       3.1651
    Quadrupole Moments (Debye-Ang)
        XX     -14.3173     XY      -2.1840     YY     -26.0609
        XZ      19.3454     YZ      -4.4085     ZZ       0.1456

 Total job time:  197.39s(wall), 2427.74s(cpu)
        *  Thank you very much for using Q-Chem.  Have a nice day.  *
