 Q-Chem 5.4, Q-Chem, Inc., Pleasanton, CA (2021)
 Q-Chem 5.4.2 for Intel X86 EM64T Linux

User input:
--------------------------------------------------------------
$molecule
-1 2
O         2.2226940169    1.2700557604   -1.6693256362
O         1.9824214348    2.5710621664   -1.6323817444
O         4.7793708417    1.3110333018   -2.5258623963
H         4.8764460685    2.1812884739   -2.9230934872
H         3.8442635380    1.2778931974   -2.2063041357
$end

$rem
BASIS = 6-311++G(2df,2p)
GUI = 2
JOB_TYPE = Frequency
METHOD = wB97M-V
SOLVENT_METHOD = SMD
SCF_ALGORITHM = DIIS_GDM
MAX_SCF_CYCLES = 400
SCF_CONVERGENCE = 7
THRESH = 12
$end
--------------------------------------------------------------

   22    -226.9265811808      3.81e-08  Convergence criterion met
 Total energy in the final basis set =     -226.9251717448
   20    -226.9265809422      6.39e-08  Convergence criterion met
 Total energy in the final basis set =     -226.9251718676
   21    -226.9265812797      5.95e-08  Convergence criterion met
 Total energy in the final basis set =     -226.9251714827
   20    -226.9265806284      6.30e-08  Convergence criterion met
 Total energy in the final basis set =     -226.9251710160
   20    -226.9265800303      8.79e-08  Convergence criterion met
 Total energy in the final basis set =     -226.9251707706
   21    -226.9265815992      4.55e-08  Convergence criterion met
 Total energy in the final basis set =     -226.9251720495
   21    -226.9265807399      5.62e-08  Convergence criterion met
 Total energy in the final basis set =     -226.9251714177
   20    -226.9265808317      7.76e-08  Convergence criterion met
 Total energy in the final basis set =     -226.9251714668
   20    -226.9265815524      8.13e-08  Convergence criterion met
 Total energy in the final basis set =     -226.9251716781
   20    -226.9265801171      8.46e-08  Convergence criterion met
 Total energy in the final basis set =     -226.9251708519
   20    -226.9265810364      9.83e-08  Convergence criterion met
 Total energy in the final basis set =     -226.9251714303
   20    -226.9265803938      8.41e-08  Convergence criterion met
 Total energy in the final basis set =     -226.9251714072
   20    -226.9265817571      7.93e-08  Convergence criterion met
 Total energy in the final basis set =     -226.9251718705
   20    -226.9265806677      8.51e-08  Convergence criterion met
 Total energy in the final basis set =     -226.9251710717
   20    -226.9265814726      9.09e-08  Convergence criterion met
 Total energy in the final basis set =     -226.9251721959

                    Orbital Energies (a.u.)
 --------------------------------------------------------------

 Alpha MOs
 -- Occupied --
-19.3461 -19.3446 -19.3109  -1.2264  -1.1156  -0.8736  -0.6201  -0.5337
 -0.5289  -0.5187  -0.4720  -0.4151  -0.3314  -0.3023

 Beta MOs
 -- Occupied --
-19.3322 -19.3297 -19.3110  -1.1974  -1.1156  -0.8315  -0.6191  -0.5140
 -0.5056  -0.4649  -0.4463  -0.4139  -0.2834

          Ground-State Mulliken Net Atomic Charges

     Atom                 Charge (a.u.)    Spin (a.u.)
  --------------------------------------------------------
      1 O                    -0.456127       0.483651
      2 O                    -0.475072       0.520054
      3 O                    -0.754634      -0.000594
      4 H                     0.323191      -0.000239
      5 H                     0.362642      -0.002872
  --------------------------------------------------------
  Sum of atomic charges =    -1.000000

                    Cartesian Multipole Moments
 -----------------------------------------------------------------
    Charge (ESU x 10^10)
                -4.8032
    Dipole Moment (Debye)
         X     -12.6595      Y      -7.3449      Z       8.0341
       Tot      16.6961
    Quadrupole Moments (Debye-Ang)
        XX     -63.0716     XY     -13.4307     YY     -34.0344
        XZ      22.3974     YZ       9.6269     ZZ     -33.2871

             Standard Nuclear Orientation (Angstroms)
    I     Atom           X                Y                Z
 ----------------------------------------------------------------
    1      O       2.2226940169     1.2700557604    -1.6693256362
    2      O       1.9824214348     2.5710621664    -1.6323817444
    3      O       4.7793708417     1.3110333018    -2.5258623963
    4      H       4.8764460685     2.1812884739    -2.9230934872
    5      H       3.8442635380     1.2778931974    -2.2063041357
 ----------------------------------------------------------------

 Frequency:        57.09                 105.95                 244.98
 Force Cnst:      0.0024                 0.0332                 0.3366
 Red. Mass:       1.2563                 5.0214                 9.5209
 IR Intens:      182.945                 36.467                 43.234
 Frequency:       462.24                 693.67                1276.81
 Force Cnst:      0.1356                 0.2949                15.3368
 Red. Mass:       1.0772                 1.0402                15.9675
 IR Intens:      145.914                188.037                  1.151
 Frequency:      1621.90                3254.35                3871.24
 Force Cnst:      1.6587                 6.6693                 9.4126
 Red. Mass:       1.0702                 1.0688                 1.0660
 IR Intens:      105.648               1545.798                 96.507

 STANDARD THERMODYNAMIC QUANTITIES AT   298.15 K  AND     1.00 ATM

   This Molecule has  0 Imaginary Frequencies
   Zero point vibrational energy:       16.566 kcal/mol

   Atom    1 Element O  Has Mass   15.99491
   Atom    2 Element O  Has Mass   15.99491
   Atom    3 Element O  Has Mass   15.99491
   Atom    4 Element H  Has Mass    1.00783
   Atom    5 Element H  Has Mass    1.00783
   Molecular Mass:    50.000390 amu
   Principal axes and moments of inertia in amu*Bohr^2:
                             1           2           3
    Eigenvalues --       45.57157   340.79189   385.73013
          X               0.91818     0.22166     0.32834
          Y              -0.25258     0.96606     0.05413
          Z              -0.30520    -0.13263     0.94301
   Rotational Symmetry Number is   1
   The Molecule is an Asymmetric Top
   Translational Enthalpy:        0.889 kcal/mol
   Rotational Enthalpy:           0.889 kcal/mol
   Vibrational Enthalpy:         18.085 kcal/mol
   gas constant (RT):             0.592 kcal/mol
   Translational Entropy:        37.652  cal/mol.K
   Rotational Entropy:           23.309  cal/mol.K
   Vibrational Entropy:          10.774  cal/mol.K

   Total Enthalpy:               20.455 kcal/mol
   Total Entropy:                71.734  cal/mol.K
 Total job time:  579.40s(wall), 5800.21s(cpu)
        *  Thank you very much for using Q-Chem.  Have a nice day.  *
