 Q-Chem 5.4, Q-Chem, Inc., Pleasanton, CA (2021)
 Q-Chem 5.4.1 for Intel X86 EM64T Linux

User input:
--------------------------------------------------------------
$molecule
-1 2
O         2.2578582626    1.2758416639   -1.5958587784
O         2.2140410964    2.5900848001   -1.8045101203
O         4.7385433942    1.3336176660   -2.6017944614
H         4.6444492153    2.2863721373   -2.7495732577
H         3.8503039314    1.1254166326   -2.2052307821
$end

$rem
BASIS = 6-311++G(2df,2p)
GUI = 2
JOB_TYPE = Optimization
METHOD = wB97M-V
SCF_ALGORITHM = DIIS_GDM
MAX_SCF_CYCLES = 400
GEOM_OPT_MAX_CYCLES = 150
SCF_CONVERGENCE = 7
THRESH = 12
Solvent_method = SMD
$end
--------------------------------------------------------------

   21    -226.9251460472      9.43e-08  Convergence criterion met
 Total energy in the final basis set =     -226.9238478987
   22    -226.9258322019      2.58e-08  Convergence criterion met
 Total energy in the final basis set =     -226.9244920260
   21    -226.9262586195      4.21e-08  Convergence criterion met
 Total energy in the final basis set =     -226.9248668334
   22    -226.9263734450      2.77e-08  Convergence criterion met
 Total energy in the final basis set =     -226.9249709585
   22    -226.9265332271      4.62e-08  Convergence criterion met
 Total energy in the final basis set =     -226.9251129871
   22    -226.9265647312      4.03e-08  Convergence criterion met
 Total energy in the final basis set =     -226.9251422856
   21    -226.9265805964      3.08e-08  Convergence criterion met
 Total energy in the final basis set =     -226.9251622382
   22    -226.9265826128      2.21e-08  Convergence criterion met
 Total energy in the final basis set =     -226.9251703316
   22    -226.9265819646      1.97e-08  Convergence criterion met
 Total energy in the final basis set =     -226.9251715139

             Standard Nuclear Orientation (Angstroms)
    I     Atom           X                Y                Z
 ----------------------------------------------------------------
    1      O       2.2226940169     1.2700557604    -1.6693256362
    2      O       1.9824214348     2.5710621664    -1.6323817444
    3      O       4.7793708417     1.3110333018    -2.5258623963
    4      H       4.8764460685     2.1812884739    -2.9230934872
    5      H       3.8442635380     1.2778931974    -2.2063041357
 ----------------------------------------------------------------

   21    -226.9265811810      7.83e-08  Convergence criterion met
 Total energy in the final basis set =     -226.9251717450
 Final energy is   -226.925171745046
 **  OPTIMIZATION CONVERGED  **

                    Orbital Energies (a.u.)
 --------------------------------------------------------------

 Alpha MOs
 -- Occupied --
-19.3461 -19.3446 -19.3109  -1.2264  -1.1155  -0.8736  -0.6201  -0.5337
 -0.5289  -0.5187  -0.4719  -0.4151  -0.3314  -0.3023

 Beta MOs
 -- Occupied --
-19.3322 -19.3298 -19.3110  -1.1974  -1.1155  -0.8315  -0.6190  -0.5140
 -0.5057  -0.4649  -0.4463  -0.4139  -0.2834

          Ground-State Mulliken Net Atomic Charges

     Atom                 Charge (a.u.)    Spin (a.u.)
  --------------------------------------------------------
      1 O                    -0.456053       0.483616
      2 O                    -0.475032       0.520093
      3 O                    -0.754848      -0.000595
      4 H                     0.323207      -0.000240
      5 H                     0.362725      -0.002875
  --------------------------------------------------------
  Sum of atomic charges =    -1.000000

                    Cartesian Multipole Moments
 -----------------------------------------------------------------
    Charge (ESU x 10^10)
                -4.8032
    Dipole Moment (Debye)
         X     -12.6609      Y      -7.3446      Z       8.0366
       Tot      16.6981
    Quadrupole Moments (Debye-Ang)
        XX     -63.0821     XY     -13.4319     YY     -34.0334
        XZ      22.4077     YZ       9.6291     ZZ     -33.2968

 Total job time:  119.79s(wall), 1860.36s(cpu)
        *  Thank you very much for using Q-Chem.  Have a nice day.  *
