 Q-Chem 5.4, Q-Chem, Inc., Pleasanton, CA (2021)
 Q-Chem 5.4.1 for Intel X86 EM64T Linux

User input:
--------------------------------------------------------------
$molecule
0 1
C         2.5361058953   -1.1475803322   -1.0662123674
O         1.4253313362   -0.2844916275   -1.0660045915
C         3.4624552200   -0.6856090019    0.0667181103
O         2.8088280165   -0.9389126783    1.2708508176
C         3.8947726596    0.7619327028   -0.0936823989
C         4.7570987632    1.2753434574    1.0144899431
O         4.8558726516    0.7454494453    2.1042928906
H         3.0653133528   -1.1010574819   -2.0156224649
H         0.9375509682   -0.4270607252   -1.8851207155
H         3.0131058850    1.4072196480   -0.1228075015
H         4.4097833499    0.9134898896   -1.0421221022
H         5.3014857602    2.2067703463    0.8053098935
O         2.1555741998   -2.4887138467   -0.8921440399
H         1.7902288268   -2.5846491397   -0.0022523462
O         4.6077080137   -1.5643849674    0.1226091115
O         5.3711690753   -1.4323438833   -1.0744107584
H         3.3429888730   -0.5396131990    1.9764485467
H         6.0990652527   -0.8569588065   -0.7955779268
$end

$rem
BASIS = 6-311++G(2df,2p)
GUI = 2
JOB_TYPE = Frequency
METHOD = wB97M-V
SOLVENT_METHOD = SMD
SCF_ALGORITHM = DIIS_GDM
MAX_SCF_CYCLES = 400
SCF_CONVERGENCE = 7
THRESH = 12
$end
--------------------------------------------------------------

   16    -608.5462446250      3.32e-08  Convergence criterion met
 Total energy in the final basis set =     -608.5391781952
   15    -608.5462387597      5.91e-08  Convergence criterion met
 Total energy in the final basis set =     -608.5391770880
   15    -608.5462485746      5.92e-08  Convergence criterion met
 Total energy in the final basis set =     -608.5391771145
   15    -608.5462407789      5.96e-08  Convergence criterion met
 Total energy in the final basis set =     -608.5391770780
   15    -608.5462469451      5.86e-08  Convergence criterion met
 Total energy in the final basis set =     -608.5391772282
   15    -608.5462434970      5.92e-08  Convergence criterion met
 Total energy in the final basis set =     -608.5391770154
   15    -608.5462434262      5.94e-08  Convergence criterion met
 Total energy in the final basis set =     -608.5391770357
   15    -608.5462474338      5.91e-08  Convergence criterion met
 Total energy in the final basis set =     -608.5391776105
   15    -608.5462434972      5.92e-08  Convergence criterion met
 Total energy in the final basis set =     -608.5391776912
   15    -608.5462450182      5.94e-08  Convergence criterion met
 Total energy in the final basis set =     -608.5391776783
   15    -608.5462431661      5.88e-08  Convergence criterion met
 Total energy in the final basis set =     -608.5391776466
   15    -608.5462440573      5.96e-08  Convergence criterion met
 Total energy in the final basis set =     -608.5391778597
   15    -608.5462445409      5.89e-08  Convergence criterion met
 Total energy in the final basis set =     -608.5391778788
   15    -608.5462440966      5.93e-08  Convergence criterion met
 Total energy in the final basis set =     -608.5391780291
   15    -608.5462447958      5.93e-08  Convergence criterion met
 Total energy in the final basis set =     -608.5391780034

                    Orbital Energies (a.u.)
 --------------------------------------------------------------

 Alpha MOs
 -- Occupied --
-19.4048 -19.3988 -19.3569 -19.3520 -19.3487 -19.3473 -10.4678 -10.4494
-10.4490 -10.3535  -1.2799  -1.2131  -1.2006  -1.1797  -1.1381  -1.0391
 -0.9133  -0.8383  -0.7457  -0.7147  -0.6926  -0.6542  -0.6377  -0.6193
 -0.5950  -0.5828  -0.5737  -0.5667  -0.5506  -0.5377  -0.5286  -0.4845
 -0.4769  -0.4596  -0.4453  -0.4339  -0.4142  -0.4111  -0.3981  -0.3712

          Ground-State Mulliken Net Atomic Charges

     Atom                 Charge (a.u.)
  ----------------------------------------
      1 C                    -0.101222
      2 O                    -0.430366
      3 C                     0.094121
      4 O                    -0.396653
      5 C                    -0.309498
      6 C                     0.042527
      7 O                    -0.376237
      8 H                     0.302136
      9 H                     0.340165
     10 H                     0.249539
     11 H                     0.254977
     12 H                     0.222958
     13 O                    -0.456101
     14 H                     0.348815
     15 O                    -0.159366
     16 O                    -0.298179
     17 H                     0.331338
     18 H                     0.341045
  ----------------------------------------
  Sum of atomic charges =     0.000000

                    Cartesian Multipole Moments
 -----------------------------------------------------------------
    Charge (ESU x 10^10)
                -0.0000
    Dipole Moment (Debye)
         X       1.3346      Y       5.8927      Z      -3.3865
       Tot       6.9263
    Quadrupole Moments (Debye-Ang)
        XX     -44.0311     XY      25.8191     YY     -66.5904
        XZ     -13.2133     YZ      -4.3590     ZZ     -60.7256

             Standard Nuclear Orientation (Angstroms)
    I     Atom           X                Y                Z
 ----------------------------------------------------------------
    1      C       2.5361058953    -1.1475803322    -1.0662123674
    2      O       1.4253313362    -0.2844916275    -1.0660045915
    3      C       3.4624552200    -0.6856090019     0.0667181103
    4      O       2.8088280165    -0.9389126783     1.2708508176
    5      C       3.8947726596     0.7619327028    -0.0936823989
    6      C       4.7570987632     1.2753434574     1.0144899431
    7      O       4.8558726516     0.7454494453     2.1042928906
    8      H       3.0653133528    -1.1010574819    -2.0156224649
    9      H       0.9375509682    -0.4270607252    -1.8851207155
   10      H       3.0131058850     1.4072196480    -0.1228075015
   11      H       4.4097833499     0.9134898896    -1.0421221022
   12      H       5.3014857602     2.2067703463     0.8053098935
   13      O       2.1555741998    -2.4887138467    -0.8921440399
   14      H       1.7902288268    -2.5846491397    -0.0022523462
   15      O       4.6077080137    -1.5643849674     0.1226091115
   16      O       5.3711690753    -1.4323438833    -1.0744107584
   17      H       3.3429888730    -0.5396131990     1.9764485467
   18      H       6.0990652527    -0.8569588065    -0.7955779268
 ----------------------------------------------------------------

 Frequency:        50.50                  72.50                 115.40
 Force Cnst:      0.0083                 0.0267                 0.0278
 Red. Mass:       5.5484                 8.6371                 3.5441
 IR Intens:        7.808                  5.030                  7.869
 Frequency:       132.15                 157.76                 230.85
 Force Cnst:      0.0304                 0.0625                 0.1187
 Red. Mass:       2.9589                 4.2655                 3.7796
 IR Intens:        8.981                 22.730                 15.473
 Frequency:       242.38                 251.84                 290.53
 Force Cnst:      0.0461                 0.0565                 0.2531
 Red. Mass:       1.3327                 1.5125                 5.0888
 IR Intens:      152.571                146.577                 52.907
 Frequency:       304.67                 347.85                 368.45
 Force Cnst:      0.1757                 0.2105                 0.2522
 Red. Mass:       3.2132                 2.9520                 3.1535
 IR Intens:       82.811                 26.534                  1.065
 Frequency:       391.55                 473.67                 511.87
 Force Cnst:      0.1076                 0.2538                 0.5373
 Red. Mass:       1.1911                 1.9200                 3.4805
 IR Intens:      218.549                 48.362                115.372
 Frequency:       518.08                 534.95                 619.06
 Force Cnst:      0.3836                 0.6250                 0.9235
 Red. Mass:       2.4258                 3.7066                 4.0902
 IR Intens:      133.097                 61.413                 33.426
 Frequency:       734.00                 766.44                 858.30
 Force Cnst:      0.6234                 1.2323                 2.0076
 Red. Mass:       1.9640                 3.5606                 4.6254
 IR Intens:        3.592                 66.948                 30.538
 Frequency:       945.07                 983.60                1029.45
 Force Cnst:      1.1463                 1.4712                 4.7966
 Red. Mass:       2.1782                 2.5809                 7.6819
 IR Intens:       70.175                 26.296                  1.885
 Frequency:      1055.58                1104.14                1172.77
 Force Cnst:      1.5199                 1.9396                 1.5104
 Red. Mass:       2.3151                 2.7003                 1.8639
 IR Intens:      104.432                191.671                120.427
 Frequency:      1206.82                1231.37                1263.34
 Force Cnst:      1.0861                 1.3211                 2.2685
 Red. Mass:       1.2657                 1.4788                 2.4124
 IR Intens:       78.853                 57.310                241.178
 Frequency:      1293.86                1336.24                1356.97
 Force Cnst:      2.2096                 2.7711                 2.0504
 Red. Mass:       2.2402                 2.6341                 1.8899
 IR Intens:      321.756                 99.259                 14.687
 Frequency:      1392.58                1410.89                1417.59
 Force Cnst:      1.3378                 1.6001                 1.3874
 Red. Mass:       1.1708                 1.3643                 1.1718
 IR Intens:       88.840                 84.566                105.385
 Frequency:      1431.10                1435.17                1493.10
 Force Cnst:      1.5188                 1.5998                 2.7607
 Red. Mass:       1.2586                 1.3183                 2.1018
 IR Intens:        5.688                139.261                 28.909
 Frequency:      1755.65                3019.11                3078.98
 Force Cnst:     16.0599                 5.8373                 5.9509
 Red. Mass:       8.8434                 1.0869                 1.0654
 IR Intens:      384.125                 85.340                 12.378
 Frequency:      3124.00                3128.52                3682.80
 Force Cnst:      6.3010                 6.2789                 8.5199
 Red. Mass:       1.0958                 1.0888                 1.0662
 IR Intens:        3.062                 23.719                365.088
 Frequency:      3758.70                3780.25                3823.45
 Force Cnst:      8.8950                 8.9733                 9.1887
 Red. Mass:       1.0686                 1.0658                 1.0668
 IR Intens:      137.194                126.118                145.316

 STANDARD THERMODYNAMIC QUANTITIES AT   298.15 K  AND     1.00 ATM

   This Molecule has  0 Imaginary Frequencies
   Zero point vibrational energy:       85.322 kcal/mol

   Atom    1 Element C  Has Mass   12.00000
   Atom    2 Element O  Has Mass   15.99491
   Atom    3 Element C  Has Mass   12.00000
   Atom    4 Element O  Has Mass   15.99491
   Atom    5 Element C  Has Mass   12.00000
   Atom    6 Element C  Has Mass   12.00000
   Atom    7 Element O  Has Mass   15.99491
   Atom    8 Element H  Has Mass    1.00783
   Atom    9 Element H  Has Mass    1.00783
   Atom   10 Element H  Has Mass    1.00783
   Atom   11 Element H  Has Mass    1.00783
   Atom   12 Element H  Has Mass    1.00783
   Atom   13 Element O  Has Mass   15.99491
   Atom   14 Element H  Has Mass    1.00783
   Atom   15 Element O  Has Mass   15.99491
   Atom   16 Element O  Has Mass   15.99491
   Atom   17 Element H  Has Mass    1.00783
   Atom   18 Element H  Has Mass    1.00783
   Molecular Mass:   152.032100 amu
   Principal axes and moments of inertia in amu*Bohr^2:
                             1           2           3
    Eigenvalues --      924.80042  1719.75518  2004.99110
          X               0.65201     0.74535    -0.13904
          Y               0.53217    -0.58049    -0.61629
          Z               0.54007    -0.32784     0.77514
   Rotational Symmetry Number is   1
   The Molecule is an Asymmetric Top
   Translational Enthalpy:        0.889 kcal/mol
   Rotational Enthalpy:           0.889 kcal/mol
   Vibrational Enthalpy:         90.703 kcal/mol
   gas constant (RT):             0.592 kcal/mol
   Translational Entropy:        40.967  cal/mol.K
   Rotational Entropy:           29.546  cal/mol.K
   Vibrational Entropy:          33.440  cal/mol.K

   Total Enthalpy:               93.073 kcal/mol
   Total Entropy:               103.952  cal/mol.K
 Total job time:  17350.69s(wall), 240501.95s(cpu)
        *  Thank you very much for using Q-Chem.  Have a nice day.  *
