 Q-Chem 5.4, Q-Chem, Inc., Pleasanton, CA (2021)
 Q-Chem 5.4.1 for Intel X86 EM64T Linux

User input:
--------------------------------------------------------------
$molecule
0 1
C         2.5320053208   -1.1512963477   -1.0802929307
O         1.4312918067   -0.2724169069   -1.0828305950
C         3.4613848868   -0.6796391450    0.0462025997
O         2.7973859922   -0.9300275476    1.2492103785
C         3.8967649599    0.7734475654   -0.1030527529
C         4.7556943587    1.2558779629    1.0300788065
O         4.7876526869    0.7263186994    2.1312533242
H         3.0589922174   -1.1341598869   -2.0377887892
H         0.9026283563   -0.4855557782   -1.8696363551
H         3.0090703788    1.4184042378   -0.1280198896
H         4.4220161202    0.9325674964   -1.0493498407
H         5.3632363212    2.1554976169    0.8356103739
O         2.1445857452   -2.4861734980   -0.8681364482
H         1.8259792326   -2.5334786326    0.0518806779
O         4.6077090769   -1.5563261516    0.1110440709
O         5.3751513285   -1.4058584584   -1.0925878931
H         3.3603109445   -0.5375692703    1.9493992489
H         6.1025783663   -0.8307821557   -0.7882218860
$end

$rem
BASIS = 6-311++G(2df,2p)
GUI = 2
JOB_TYPE = Optimization
METHOD = wB97M-V
SCF_ALGORITHM = DIIS_GDM
MAX_SCF_CYCLES = 400
GEOM_OPT_MAX_CYCLES = 150
SCF_CONVERGENCE = 7
THRESH = 12
Solvent_method = SMD
$end
--------------------------------------------------------------

   16    -608.5453395115      3.69e-08  Convergence criterion met
 Total energy in the final basis set =     -608.5383954132
   15    -608.5461032492      5.06e-08  Convergence criterion met
 Total energy in the final basis set =     -608.5390381895
   15    -608.5457530832      6.90e-08  Convergence criterion met
 Total energy in the final basis set =     -608.5388021714
   15    -608.5462007210      4.49e-08  Convergence criterion met
 Total energy in the final basis set =     -608.5391517280
   15    -608.5462098137      5.42e-08  Convergence criterion met
 Total energy in the final basis set =     -608.5391589788
   15    -608.5462075406      6.13e-08  Convergence criterion met
 Total energy in the final basis set =     -608.5391548303
   15    -608.5462265554      4.45e-08  Convergence criterion met
 Total energy in the final basis set =     -608.5391721395
   15    -608.5462372190      5.14e-08  Convergence criterion met
 Total energy in the final basis set =     -608.5391757073
   15    -608.5462417697      5.07e-08  Convergence criterion met
 Total energy in the final basis set =     -608.5391776593

             Standard Nuclear Orientation (Angstroms)
    I     Atom           X                Y                Z
 ----------------------------------------------------------------
    1      C       2.5361058953    -1.1475803322    -1.0662123674
    2      O       1.4253313362    -0.2844916275    -1.0660045915
    3      C       3.4624552200    -0.6856090019     0.0667181103
    4      O       2.8088280165    -0.9389126783     1.2708508176
    5      C       3.8947726596     0.7619327028    -0.0936823989
    6      C       4.7570987632     1.2753434574     1.0144899431
    7      O       4.8558726516     0.7454494453     2.1042928906
    8      H       3.0653133528    -1.1010574819    -2.0156224649
    9      H       0.9375509682    -0.4270607252    -1.8851207155
   10      H       3.0131058850     1.4072196480    -0.1228075015
   11      H       4.4097833499     0.9134898896    -1.0421221022
   12      H       5.3014857602     2.2067703463     0.8053098935
   13      O       2.1555741998    -2.4887138467    -0.8921440399
   14      H       1.7902288268    -2.5846491397    -0.0022523462
   15      O       4.6077080137    -1.5643849674     0.1226091115
   16      O       5.3711690753    -1.4323438833    -1.0744107584
   17      H       3.3429888730    -0.5396131990     1.9764485467
   18      H       6.0990652527    -0.8569588065    -0.7955779268
 ----------------------------------------------------------------

   15    -608.5462446245      4.98e-08  Convergence criterion met
 Total energy in the final basis set =     -608.5391781948
 Final energy is   -608.539178194787
 **  OPTIMIZATION CONVERGED  **

                    Orbital Energies (a.u.)
 --------------------------------------------------------------

 Alpha MOs
 -- Occupied --
-19.4047 -19.3988 -19.3569 -19.3520 -19.3487 -19.3473 -10.4678 -10.4494
-10.4490 -10.3535  -1.2799  -1.2131  -1.2006  -1.1797  -1.1381  -1.0391
 -0.9133  -0.8383  -0.7456  -0.7146  -0.6926  -0.6542  -0.6377  -0.6193
 -0.5950  -0.5828  -0.5737  -0.5667  -0.5506  -0.5377  -0.5286  -0.4845
 -0.4769  -0.4596  -0.4453  -0.4339  -0.4142  -0.4111  -0.3981  -0.3712

          Ground-State Mulliken Net Atomic Charges

     Atom                 Charge (a.u.)
  ----------------------------------------
      1 C                    -0.101211
      2 O                    -0.430369
      3 C                     0.094273
      4 O                    -0.396652
      5 C                    -0.309746
      6 C                     0.042603
      7 O                    -0.376223
      8 H                     0.302127
      9 H                     0.340168
     10 H                     0.249534
     11 H                     0.255014
     12 H                     0.222955
     13 O                    -0.456100
     14 H                     0.348817
     15 O                    -0.159504
     16 O                    -0.298122
     17 H                     0.331335
     18 H                     0.341102
  ----------------------------------------
  Sum of atomic charges =     0.000000

                    Cartesian Multipole Moments
 -----------------------------------------------------------------
    Charge (ESU x 10^10)
                -0.0000
    Dipole Moment (Debye)
         X       1.3347      Y       5.8923      Z      -3.3852
       Tot       6.9253
    Quadrupole Moments (Debye-Ang)
        XX     -44.0307     XY      25.8169     YY     -66.5899
        XZ     -13.2039     YZ      -4.3590     ZZ     -60.7279

 Total job time:  1571.93s(wall), 22028.01s(cpu)
        *  Thank you very much for using Q-Chem.  Have a nice day.  *
