 Q-Chem 5.4, Q-Chem, Inc., Pleasanton, CA (2021)
 Q-Chem 5.4.1 for Intel X86 EM64T Linux

User input:
--------------------------------------------------------------
$molecule
0 2
C        -0.8310754451    0.1509603146    1.3093907329
C        -1.4120055601   -0.8921755864    1.9896700104
C        -1.9868045686   -1.9553395540    1.2855605997
C        -1.9877030975   -1.9573239331   -0.1043068545
C        -1.4043429108   -0.9135568858   -0.7970489634
C        -0.7711669069    0.1424518608   -0.1043138726
C        -0.3751189910    1.4135656787   -0.8159855675
H        -0.3881055362    0.9807512944    1.8452198149
H        -1.4298862379   -0.8906848464    3.0708686732
H        -2.4430952802   -2.7726055246    1.8269513952
H        -2.4495696300   -2.7714800783   -0.6450870285
H        -1.4123477259   -0.9078898075   -1.8791718772
H        -1.2390048778    2.0814073835   -0.8504992322
O         0.1302499620    1.1991022628   -2.1268953221
H         0.4078125748    1.9107336308   -0.2475801204
H        -0.6096699429    1.0561144877   -2.7258527717
O         1.1337396770   -0.7751381791   -0.2587517663
H         1.1675632808   -0.5606097504   -1.2041027546
$end

$rem
BASIS = 6-311++G(2df,2p)
GUI = 2
JOB_TYPE = Frequency
METHOD = wB97M-V
SOLVENT_METHOD = SMD
SCF_ALGORITHM = DIIS_GDM
MAX_SCF_CYCLES = 400
SCF_CONVERGENCE = 7
THRESH = 12
UNRESTRICTED = 1
SYMMETRY_IGNORE = 1
$end
--------------------------------------------------------------

   25    -422.5067784863      7.36e-08  Convergence criterion met
 Total energy in the final basis set =     -422.5013241638
   22    -422.5067781214      9.31e-08  Convergence criterion met
 Total energy in the final basis set =     -422.5013236827
   22    -422.5067778477      9.05e-08  Convergence criterion met
 Total energy in the final basis set =     -422.5013236394
   22    -422.5067778480      9.45e-08  Convergence criterion met
 Total energy in the final basis set =     -422.5013229924
   22    -422.5067769303      9.00e-08  Convergence criterion met
 Total energy in the final basis set =     -422.5013231377
   22    -422.5067774691      9.16e-08  Convergence criterion met
 Total energy in the final basis set =     -422.5013230559
   22    -422.5067772453      9.49e-08  Convergence criterion met
 Total energy in the final basis set =     -422.5013230096
   22    -422.5067780667      8.97e-08  Convergence criterion met
 Total energy in the final basis set =     -422.5013235006
   22    -422.5067770696      9.24e-08  Convergence criterion met
 Total energy in the final basis set =     -422.5013230735
   22    -422.5067792109      9.19e-08  Convergence criterion met
 Total energy in the final basis set =     -422.5013241760
   22    -422.5067776911      9.35e-08  Convergence criterion met
 Total energy in the final basis set =     -422.5013240806
   22    -422.5067783680      9.18e-08  Convergence criterion met
 Total energy in the final basis set =     -422.5013242905
   22    -422.5067785025      9.20e-08  Convergence criterion met
 Total energy in the final basis set =     -422.5013239347
   22    -422.5067768752      9.27e-08  Convergence criterion met
 Total energy in the final basis set =     -422.5013230785
   22    -422.5067783845      9.19e-08  Convergence criterion met
 Total energy in the final basis set =     -422.5013235366

                    Orbital Energies (a.u.)
 --------------------------------------------------------------

 Alpha MOs
 -- Occupied --
-19.3430 -19.3374 -10.3921 -10.3831 -10.3592 -10.3573 -10.3554 -10.3485
-10.3471  -1.1627  -1.0922  -0.9955  -0.8991  -0.8811  -0.8052  -0.7296
 -0.7108  -0.6440  -0.6204  -0.5843  -0.5709  -0.5584  -0.5373  -0.5327
 -0.5244  -0.5056  -0.4645  -0.4527  -0.4448  -0.4391  -0.4181  -0.3978
 -0.3561  -0.3195

 Beta MOs
 -- Occupied --
-19.3430 -19.3200 -10.3919 -10.3828 -10.3561 -10.3544 -10.3529 -10.3497
-10.3486  -1.1625  -1.0529  -0.9901  -0.8954  -0.8785  -0.8021  -0.7271
 -0.7087  -0.6426  -0.6183  -0.5822  -0.5684  -0.5462  -0.5315  -0.5273
 -0.5221  -0.4845  -0.4619  -0.4497  -0.4406  -0.4012  -0.3943  -0.3586
 -0.3467

          Ground-State Mulliken Net Atomic Charges

     Atom                 Charge (a.u.)    Spin (a.u.)
  --------------------------------------------------------
      1 C                     0.023179       0.167047
      2 C                    -0.496280      -0.071324
      3 C                    -0.242495       0.200796
      4 C                    -0.485140      -0.085578
      5 C                    -0.548928       0.216184
      6 C                     0.497225      -0.028083
      7 C                    -0.361564       0.003651
      8 H                     0.293210      -0.004897
      9 H                     0.283650       0.002461
     10 H                     0.285017      -0.003683
     11 H                     0.287570       0.002627
     12 H                     0.288898      -0.004973
     13 H                     0.199120      -0.002263
     14 O                    -0.422608       0.002019
     15 H                     0.248180       0.000892
     16 H                     0.340596      -0.000123
     17 O                    -0.510681       0.613977
     18 H                     0.321050      -0.008731
  --------------------------------------------------------
  Sum of atomic charges =     0.000000

                    Cartesian Multipole Moments
 -----------------------------------------------------------------
    Charge (ESU x 10^10)
                 0.0000
    Dipole Moment (Debye)
         X      -5.4679      Y       1.2537      Z      -0.7053
       Tot       5.6539
    Quadrupole Moments (Debye-Ang)
        XX     -54.7459     XY       4.2605     YY     -51.0856
        XZ       3.0973     YZ       0.9020     ZZ     -43.8545

             Standard Nuclear Orientation (Angstroms)
    I     Atom           X                Y                Z
 ----------------------------------------------------------------
    1      C      -0.8310754451     0.1509603146     1.3093907329
    2      C      -1.4120055601    -0.8921755864     1.9896700104
    3      C      -1.9868045686    -1.9553395540     1.2855605997
    4      C      -1.9877030975    -1.9573239331    -0.1043068545
    5      C      -1.4043429108    -0.9135568858    -0.7970489634
    6      C      -0.7711669069     0.1424518608    -0.1043138726
    7      C      -0.3751189910     1.4135656787    -0.8159855675
    8      H      -0.3881055362     0.9807512944     1.8452198149
    9      H      -1.4298862379    -0.8906848464     3.0708686732
   10      H      -2.4430952802    -2.7726055246     1.8269513952
   11      H      -2.4495696300    -2.7714800783    -0.6450870285
   12      H      -1.4123477259    -0.9078898075    -1.8791718772
   13      H      -1.2390048778     2.0814073835    -0.8504992322
   14      O       0.1302499620     1.1991022628    -2.1268953221
   15      H       0.4078125748     1.9107336308    -0.2475801204
   16      H      -0.6096699429     1.0561144877    -2.7258527717
   17      O       1.1337396770    -0.7751381791    -0.2587517663
   18      H       1.1675632808    -0.5606097504    -1.2041027546
 ----------------------------------------------------------------

 Frequency:      -257.20                  83.26                 119.24
 Force Cnst:      0.3889                 0.0116                 0.0448
 Red. Mass:       9.9789                 2.8377                 5.3440
 IR Intens:      154.252                  1.694                  3.121
 Frequency:       133.02                 196.40                 267.80
 Force Cnst:      0.0546                 0.1241                 0.1206
 Red. Mass:       5.2388                 5.4605                 2.8551
 IR Intens:        5.777                 13.752                  9.203
 Frequency:       282.38                 351.55                 394.52
 Force Cnst:      0.0538                 0.0824                 0.2563
 Red. Mass:       1.1454                 1.1323                 2.7952
 IR Intens:       69.011                335.968                 53.512
 Frequency:       400.83                 413.07                 604.57
 Force Cnst:      0.2698                 0.4330                 1.1470
 Red. Mass:       2.8497                 4.3069                 5.3261
 IR Intens:        4.638                 14.072                 18.362
 Frequency:       612.74                 663.93                 741.46
 Force Cnst:      1.4134                 0.5743                 0.3954
 Red. Mass:       6.3894                 2.2114                 1.2207
 IR Intens:        0.734                 39.237                169.548
 Frequency:       768.30                 793.77                 851.76
 Force Cnst:      0.4211                 1.4932                 0.5470
 Red. Mass:       1.2108                 4.0222                 1.2797
 IR Intens:       33.098                 75.003                  1.392
 Frequency:       937.00                 972.77                1003.11
 Force Cnst:      0.6900                 0.8500                 3.2201
 Red. Mass:       1.3339                 1.5247                 5.4316
 IR Intens:        7.967                 17.740                 11.241
 Frequency:      1011.79                1033.18                1045.41
 Force Cnst:      0.8306                 0.8517                 1.4757
 Red. Mass:       1.3770                 1.3542                 2.2917
 IR Intens:        0.225                  0.558                 15.527
 Frequency:      1080.64                1112.90                1157.64
 Force Cnst:      3.6341                 1.1252                 0.9192
 Red. Mass:       5.2818                 1.5419                 1.1642
 IR Intens:      141.986                 18.399                  4.851
 Frequency:      1183.72                1212.47                1224.99
 Force Cnst:      0.9559                 0.9875                 2.3084
 Red. Mass:       1.1579                 1.1401                 2.6109
 IR Intens:       91.111                 31.147                 33.597
 Frequency:      1312.59                1344.72                1385.31
 Force Cnst:      4.4640                 1.5548                 1.4014
 Red. Mass:       4.3976                 1.4594                 1.2394
 IR Intens:       31.533                  4.940                 22.718
 Frequency:      1410.17                1470.44                1479.67
 Force Cnst:      1.5312                 1.4063                 2.8321
 Red. Mass:       1.3068                 1.1039                 2.1955
 IR Intens:       27.922                 19.120                 28.329
 Frequency:      1510.77                1606.05                1633.68
 Force Cnst:      2.8153                 7.1402                 8.4537
 Red. Mass:       2.0935                 4.6983                 5.3761
 IR Intens:       42.786                 14.820                313.830
 Frequency:      3056.77                3126.98                3189.61
 Force Cnst:      5.8687                 6.3324                 6.5198
 Red. Mass:       1.0660                 1.0992                 1.0877
 IR Intens:       31.188                 19.309                  4.387
 Frequency:      3194.70                3201.52                3210.20
 Force Cnst:      6.5391                 6.5892                 6.6501
 Red. Mass:       1.0874                 1.0911                 1.0952
 IR Intens:        0.773                  7.108                 26.688
 Frequency:      3218.51                3746.47                3837.42
 Force Cnst:      6.7055                 8.8263                 9.2567
 Red. Mass:       1.0987                 1.0673                 1.0669
 IR Intens:       26.682                394.109                129.537

 STANDARD THERMODYNAMIC QUANTITIES AT   298.15 K  AND     1.00 ATM

   This Molecule has  1 Imaginary Frequencies
   Zero point vibrational energy:       90.906 kcal/mol

   Atom    1 Element C  Has Mass   12.00000
   Atom    2 Element C  Has Mass   12.00000
   Atom    3 Element C  Has Mass   12.00000
   Atom    4 Element C  Has Mass   12.00000
   Atom    5 Element C  Has Mass   12.00000
   Atom    6 Element C  Has Mass   12.00000
   Atom    7 Element C  Has Mass   12.00000
   Atom    8 Element H  Has Mass    1.00783
   Atom    9 Element H  Has Mass    1.00783
   Atom   10 Element H  Has Mass    1.00783
   Atom   11 Element H  Has Mass    1.00783
   Atom   12 Element H  Has Mass    1.00783
   Atom   13 Element H  Has Mass    1.00783
   Atom   14 Element O  Has Mass   15.99491
   Atom   15 Element H  Has Mass    1.00783
   Atom   16 Element H  Has Mass    1.00783
   Atom   17 Element O  Has Mass   15.99491
   Atom   18 Element H  Has Mass    1.00783
   Molecular Mass:   125.060290 amu
   Principal axes and moments of inertia in amu*Bohr^2:
                             1           2           3
    Eigenvalues --      601.86476  1493.21033  1606.83783
          X              -0.45243     0.36546     0.81348
          Y              -0.60616     0.54305    -0.58109
          Z               0.65413     0.75600     0.02417
   Rotational Symmetry Number is   1
   The Molecule is an Asymmetric Top
   Translational Enthalpy:        0.889 kcal/mol
   Rotational Enthalpy:           0.889 kcal/mol
   Vibrational Enthalpy:         94.707 kcal/mol
   gas constant (RT):             0.592 kcal/mol
   Translational Entropy:        40.384  cal/mol.K
   Rotational Entropy:           28.758  cal/mol.K
   Vibrational Entropy:          22.238  cal/mol.K

   Total Enthalpy:               97.077 kcal/mol
   Total Entropy:                91.381  cal/mol.K
 Total job time:  40857.59s(wall), 313436.93s(cpu)
        *  Thank you very much for using Q-Chem.  Have a nice day.  *
