 Q-Chem 5.4, Q-Chem, Inc., Pleasanton, CA (2021)
 Q-Chem 5.4.1 for Intel X86 EM64T Linux

User input:
--------------------------------------------------------------
$molecule
0 2
C   -0.7178915    0.0714637    1.1392109
C   -1.1106707   -1.0574476    1.8494712
C   -1.9198338   -2.0094095    1.2456280
C   -2.3390523   -1.8302777   -0.0679615
C   -1.9456741   -0.7034066   -0.7755243
C   -1.1302371    0.2544551   -0.1791952
C   -0.6376754    1.4328250   -0.9735377
H   -0.0983056    0.8227900    1.6127494
H   -0.7873549   -1.1897628    2.8733270
H   -2.2285931   -2.8869552    1.7974306
H   -2.9749430   -2.5680574   -0.5384256
H   -2.2730743   -0.5620399   -1.7986539
H   -1.3969895    1.7743126   -1.6765894
O    0.5680171    1.1062964   -1.6933091
H   -0.3744631    2.2563665   -0.3141144
H    0.3294405    0.5116836   -2.4140953
O    1.7394402   -0.7417567    0.0872431
H    1.4562393   -0.0906463   -0.5977224
****
C   -0.4880382    0.0864317    0.8895065
C   -0.5136938   -1.1467202    1.4514631
C   -1.0343837   -2.2612703    0.7533583
C   -1.5102622   -2.0970038   -0.5681457
C   -1.5128510   -0.8798281   -1.1652269
C   -1.0447770    0.3635295   -0.4692223
C   -2.1992573    1.3753334   -0.3298898
H   -0.0775452    0.9359463    1.4210414
H   -0.1178034   -1.2879574    2.4487695
H   -1.0421969   -3.2367716    1.2172237
H   -1.8683601   -2.9619076   -1.1113098
H   -1.8666191   -0.7629988   -2.1829216
H   -3.0303891    0.9167995    0.2074353
O   -2.6159752    1.8699987   -1.5973996
H   -1.8398636    2.2341361    0.2356919
H   -3.1437944    1.1937089   -2.0356603
O   -0.0074143    1.0009336   -1.2487479
H   -0.4517094    1.4344249   -1.9907427
$end

$rem
BASIS = 6-311++G(2df,2p)
GUI = 2
JOB_TYPE = FSM
FSM_MODE = 2
METHOD = wB97M-v
MAX_SCF_CYCLES = 120
FSM_NGRAD = 6
FSM_NNODE = 20
SCF_CONVERGENCE = 7
THRESH = 12
SCF_ALGORITHM = DIIS_GDM
UNRESTRICTED = 1
solvent_method = SMD
$end

--------------------------------------------------------------

   29    -422.5109757445      9.74e-08  Convergence criterion met
 Total energy in the final basis set =     -422.5056649414
   19    -422.5368022201      3.99e-08  Convergence criterion met
 Total energy in the final basis set =     -422.5312044531
   29    -422.5107777748      7.84e-08  Convergence criterion met
 Total energy in the final basis set =     -422.5054478492
   30    -422.5086549838      5.40e-08  Convergence criterion met
 Total energy in the final basis set =     -422.5033618205
   30    -422.5089385554      6.57e-08  Convergence criterion met
 Total energy in the final basis set =     -422.5036368005
   29    -422.5099638292      8.82e-08  Convergence criterion met
 Total energy in the final basis set =     -422.5046095946
   19    -422.5341023938      4.89e-08  Convergence criterion met
 Total energy in the final basis set =     -422.5285244991
   19    -422.5361461611      4.74e-08  Convergence criterion met
 Total job time:  24005.99s(wall), 186885.87s(cpu)
        *  Thank you very much for using Q-Chem.  Have a nice day.  *
 Q-Chem 5.4, Q-Chem, Inc., Pleasanton, CA (2021)
 Q-Chem 5.4.1 for Intel X86 EM64T Linux

User input:
--------------------------------------------------------------

$rem
JOBTYPE = ts
SCF_GUESS = read
GEOM_OPT_HESSIAN = read
MAX_SCF_CYCLES = 350
GEOM_OPT_DMAX = 60
GEOM_OPT_MAX_CYCLES = 250
METHOD = wB97M-v
BASIS = 6-311++G(2df,2p)
SCF_CONVERGENCE = 7
THRESH = 12
SCF_ALGORITHM = DIIS_GDM
UNRESTRICTED = 1
solvent_method = SMD
$end

$molecule
read
$end

--------------------------------------------------------------

   22    -422.5067598602      9.71e-08  Convergence criterion met
 Total energy in the final basis set =     -422.5013027665
   23    -422.5067688396      5.15e-08  Convergence criterion met
 Total energy in the final basis set =     -422.5013008498
   23    -422.5067638385      5.25e-08  Convergence criterion met
 Total energy in the final basis set =     -422.5013072653
   23    -422.5067699886      5.03e-08  Convergence criterion met
 Total energy in the final basis set =     -422.5013117660
   23    -422.5067730466      5.05e-08  Convergence criterion met
 Total energy in the final basis set =     -422.5013203081
   22    -422.5067772246      9.55e-08  Convergence criterion met
 Total energy in the final basis set =     -422.5013237332

             Standard Nuclear Orientation (Angstroms)
    I     Atom           X                Y                Z
 ----------------------------------------------------------------
    1      C      -0.8310754451     0.1509603146     1.3093907329
    2      C      -1.4120055601    -0.8921755864     1.9896700104
    3      C      -1.9868045686    -1.9553395540     1.2855605997
    4      C      -1.9877030975    -1.9573239331    -0.1043068545
    5      C      -1.4043429108    -0.9135568858    -0.7970489634
    6      C      -0.7711669069     0.1424518608    -0.1043138726
    7      C      -0.3751189910     1.4135656787    -0.8159855675
    8      H      -0.3881055362     0.9807512944     1.8452198149
    9      H      -1.4298862379    -0.8906848464     3.0708686732
   10      H      -2.4430952802    -2.7726055246     1.8269513952
   11      H      -2.4495696300    -2.7714800783    -0.6450870285
   12      H      -1.4123477259    -0.9078898075    -1.8791718772
   13      H      -1.2390048778     2.0814073835    -0.8504992322
   14      O       0.1302499620     1.1991022628    -2.1268953221
   15      H       0.4078125748     1.9107336308    -0.2475801204
   16      H      -0.6096699429     1.0561144877    -2.7258527717
   17      O       1.1337396770    -0.7751381791    -0.2587517663
   18      H       1.1675632808    -0.5606097504    -1.2041027546
 ----------------------------------------------------------------

   22    -422.5067784864      9.28e-08  Convergence criterion met
 Total energy in the final basis set =     -422.5013241639
 Final energy is   -422.501324163874
 **  OPTIMIZATION CONVERGED  **

                    Orbital Energies (a.u.)
 --------------------------------------------------------------

 Alpha MOs
 -- Occupied --
-19.3430 -19.3373 -10.3921 -10.3831 -10.3592 -10.3574 -10.3555 -10.3485
-10.3471  -1.1627  -1.0925  -0.9955  -0.8991  -0.8811  -0.8052  -0.7296
 -0.7108  -0.6440  -0.6204  -0.5843  -0.5709  -0.5585  -0.5373  -0.5327
 -0.5244  -0.5056  -0.4645  -0.4527  -0.4448  -0.4391  -0.4181  -0.3978
 -0.3561  -0.3195

 Beta MOs
 -- Occupied --
-19.3430 -19.3199 -10.3919 -10.3828 -10.3561 -10.3544 -10.3529 -10.3497
-10.3486  -1.1625  -1.0531  -0.9902  -0.8954  -0.8786  -0.8021  -0.7271
 -0.7087  -0.6426  -0.6183  -0.5822  -0.5684  -0.5462  -0.5315  -0.5273
 -0.5221  -0.4845  -0.4619  -0.4497  -0.4406  -0.4012  -0.3943  -0.3586
 -0.3467

          Ground-State Mulliken Net Atomic Charges

     Atom                 Charge (a.u.)    Spin (a.u.)
  --------------------------------------------------------
      1 C                     0.023332       0.167083
      2 C                    -0.496276      -0.071341
      3 C                    -0.242434       0.200861
      4 C                    -0.485163      -0.085594
      5 C                    -0.548849       0.216228
      6 C                     0.496988      -0.028009
      7 C                    -0.361477       0.003649
      8 H                     0.293216      -0.004898
      9 H                     0.283654       0.002462
     10 H                     0.285022      -0.003683
     11 H                     0.287573       0.002627
     12 H                     0.288901      -0.004975
     13 H                     0.199121      -0.002259
     14 O                    -0.422600       0.002022
     15 H                     0.248179       0.000894
     16 H                     0.340591      -0.000123
     17 O                    -0.510643       0.613737
     18 H                     0.320867      -0.008681
  --------------------------------------------------------
  Sum of atomic charges =     0.000000

                    Cartesian Multipole Moments
 -----------------------------------------------------------------
    Charge (ESU x 10^10)
                 0.0000
    Dipole Moment (Debye)
         X      -5.4699      Y       1.2537      Z      -0.7033
       Tot       5.6557
    Quadrupole Moments (Debye-Ang)
        XX     -54.7437     XY       4.2629     YY     -51.0831
        XZ       3.0980     YZ       0.9007     ZZ     -43.8563

 Total job time:  10722.61s(wall), 83629.21s(cpu)
        *  Thank you very much for using Q-Chem.  Have a nice day.  *
