 Q-Chem 5.4, Q-Chem, Inc., Pleasanton, CA (2021)
 Q-Chem 5.4.1 for Intel X86 EM64T Linux

User input:
--------------------------------------------------------------
$molecule
0 2
H    0.4362129    0.4358851    1.4069634
C   -0.1686535    0.7625273    0.5729390
C   -1.3997407    1.2413227    0.7413752
H   -1.8236581    1.3218287    1.7335492
C   -2.2165509    1.6745575   -0.3965827
H   -3.2554324    1.9167128   -0.2167070
C   -1.6911527    1.7929369   -1.6137674
H   -2.2816222    2.1395623   -2.4521019
C   -0.2377744    1.5112266   -1.8632899
H   -0.1132564    1.0079937   -2.8245287
C    0.4001292    0.6243236   -0.7995155
H    1.4783781    0.7695501   -0.8166569
O    0.5203286    2.7276004   -1.8595646
H    0.1012681    3.3405139   -2.4745570
O    0.9110762   -1.1469661   -2.1853609
O    0.1787160   -0.7886078   -1.1710027
****
H    0.5874130    1.4909392    1.4964192
C   -0.1438913    1.2813729    0.7299697
C   -1.4428310    1.5481838    0.8102850
H   -1.9413301    2.0191171    1.6450151
C   -2.2010368    1.0748908   -0.3996915
H   -3.2797895    1.1521048   -0.3146593
C   -1.6276114    1.7217012   -1.6082584
H   -2.2116632    2.2784856   -2.3240531
C   -0.1676529    1.4719633   -1.7528198
H    0.0498761    0.9159026   -2.6697116
C    0.2219175    0.5999172   -0.5536456
H    1.2536412    0.2648677   -0.6070367
O    0.6307941    2.6601101   -1.7121786
H    0.3708573    3.2175090   -2.4540498
O   -1.9663291   -0.3702967   -0.5071115
O   -0.5463296   -0.6241342   -0.6830018
$end

$rem
BASIS = 6-311++G(2df,2p)
GUI = 2
JOB_TYPE = FSM
FSM_MODE = 2
METHOD = wB97M-v
MAX_SCF_CYCLES = 120
FSM_NGRAD = 6
FSM_NNODE = 20
SCF_CONVERGENCE = 7
THRESH = 12
SCF_ALGORITHM = DIIS_GDM
solvent_method = SMD
$end

--------------------------------------------------------------

   19    -458.3549413075      9.08e-08  Convergence criterion met
 Total energy in the final basis set =     -458.3508631791
   18    -458.3367887091      9.49e-08  Convergence criterion met
 Total energy in the final basis set =     -458.3328296436
   24    -458.3545417206      5.24e-08  Convergence criterion met
 Total energy in the final basis set =     -458.3504645216
   22    -458.3519992323      6.73e-08  Convergence criterion met
 Total energy in the final basis set =     -458.3479268252
   25    -458.3501138428      4.68e-08  Convergence criterion met
 Total energy in the final basis set =     -458.3460187115
   24    -458.3528562235      8.24e-08  Convergence criterion met
 Total energy in the final basis set =     -458.3487752166
   18    -458.3301028205      8.26e-08  Convergence criterion met
 Total energy in the final basis set =     -458.3261504984
   18    -458.3317955035      8.38e-08  Convergence criterion met
 Total job time:  8605.79s(wall), 223042.78s(cpu)
        *  Thank you very much for using Q-Chem.  Have a nice day.  *
 Q-Chem 5.4, Q-Chem, Inc., Pleasanton, CA (2021)
 Q-Chem 5.4.1 for Intel X86 EM64T Linux

User input:
--------------------------------------------------------------

$rem
JOBTYPE = ts
SCF_GUESS = read
GEOM_OPT_HESSIAN = read
MAX_SCF_CYCLES = 350
GEOM_OPT_DMAX = 60
GEOM_OPT_MAX_CYCLES = 250
METHOD = wB97M-v
BASIS = 6-311++G(2df,2p)
SCF_CONVERGENCE = 7
THRESH = 12
SCF_ALGORITHM = DIIS_GDM
solvent_method = SMD
$end

$molecule
read
$end
--------------------------------------------------------------

   22    -458.3146958034      8.06e-08  Convergence criterion met
 Total energy in the final basis set =     -458.3108277514
   22    -458.3147149371      9.49e-08  Convergence criterion met
 Total energy in the final basis set =     -458.3108456165
   23    -458.3147329910      2.99e-08  Convergence criterion met
 Total energy in the final basis set =     -458.3108622761
   23    -458.3147482259      3.18e-08  Convergence criterion met
 Total energy in the final basis set =     -458.3108760128
   23    -458.3147592068      3.29e-08  Convergence criterion met
 Total energy in the final basis set =     -458.3108854084
   23    -458.3147642253      3.16e-08  Convergence criterion met
 Total energy in the final basis set =     -458.3108891090

             Standard Nuclear Orientation (Angstroms)
    I     Atom           X                Y                Z
 ----------------------------------------------------------------
    1      H       0.7534248228     0.9034539402     1.3459088848
    2      C       0.0682695076     0.9454745479     0.5121185093
    3      C      -1.2422623766     1.1401152181     0.6425567871
    4      H      -1.7413625716     1.2675558995     1.5927027980
    5      C      -2.0365082034     1.1191022975    -0.5873451834
    6      H      -3.1021206744     0.9519617558    -0.5086360132
    7      C      -1.5170291844     1.6420497003    -1.7578919763
    8      H      -2.1452686391     1.8336323475    -2.6152047688
    9      C      -0.0243235908     1.6760297975    -1.8725919115
   10      H       0.2718178106     1.3661649325    -2.8765923362
   11      C       0.5221279785     0.6522667760    -0.8750731830
   12      H       1.5982099529     0.5406245019    -0.9702281965
   13      O       0.5448587517     2.9471277789    -1.5576857275
   14      H       0.2263201666     3.5834311075    -2.2076736033
   15      O      -1.4155564657    -0.6835180195    -1.1957196368
   16      O      -0.0057711625    -0.6391799304    -1.2998913782
 ----------------------------------------------------------------

   23    -458.3147649344      2.67e-08  Convergence criterion met
 Total energy in the final basis set =     -458.3108896718
 Final energy is   -458.310889671752
 **  OPTIMIZATION CONVERGED  **

                    Orbital Energies (a.u.)
 --------------------------------------------------------------

 Alpha MOs
 -- Occupied --
-19.3966 -19.3846 -19.3473 -10.4059 -10.4057 -10.3980 -10.3723 -10.3561
-10.3521  -1.2496  -1.1671  -1.0076  -0.9862  -0.8880  -0.8460  -0.7492
 -0.7321  -0.6577  -0.6552  -0.5963  -0.5911  -0.5843  -0.5603  -0.5527
 -0.5232  -0.5026  -0.5015  -0.4650  -0.4586  -0.4319  -0.4017  -0.3843
 -0.3497  -0.3150

 Beta MOs
 -- Occupied --
-19.3961 -19.3709 -19.3462 -10.4061 -10.4056 -10.3982 -10.3643 -10.3557
-10.3520  -1.2390  -1.1644  -0.9919  -0.9794  -0.8804  -0.8408  -0.7455
 -0.7263  -0.6547  -0.6496  -0.5931  -0.5844  -0.5744  -0.5535  -0.5487
 -0.5187  -0.4970  -0.4872  -0.4610  -0.4342  -0.4238  -0.3936  -0.3611
 -0.3345

          Ground-State Mulliken Net Atomic Charges

     Atom                 Charge (a.u.)    Spin (a.u.)
  --------------------------------------------------------
      1 H                     0.308714      -0.000189
      2 C                     0.022891      -0.004407
      3 C                    -0.609833       0.030447
      4 H                     0.267744      -0.002873
      5 C                     0.330552      -0.037833
      6 H                     0.331614       0.002147
      7 C                    -0.583063       0.543023
      8 H                     0.275875      -0.007271
      9 C                    -0.021207      -0.000812
     10 H                     0.257757       0.006940
     11 C                    -0.400845       0.012517
     12 H                     0.271834      -0.000870
     13 O                    -0.416050       0.020436
     14 H                     0.349624      -0.000203
     15 O                    -0.278005       0.416268
     16 O                    -0.107603       0.022679
  --------------------------------------------------------
  Sum of atomic charges =    -0.000000

                    Cartesian Multipole Moments
 -----------------------------------------------------------------
    Charge (ESU x 10^10)
                -0.0000
    Dipole Moment (Debye)
         X      -1.1662      Y       4.8725      Z      -0.3313
       Tot       5.0210
    Quadrupole Moments (Debye-Ang)
        XX     -45.8018     XY      -9.1135     YY     -52.3621
        XZ       0.4990     YZ     -11.8739     ZZ     -43.5919

 Total job time:  3667.67s(wall), 96267.65s(cpu)
        *  Thank you very much for using Q-Chem.  Have a nice day.  *
