 Q-Chem 5.4, Q-Chem, Inc., Pleasanton, CA (2021)
 Q-Chem 5.4.1 for Intel X86 EM64T Linux

User input:
--------------------------------------------------------------
$molecule
0 2
C         2.4059378213   -0.9697823144   -0.9038794469
O         1.1817798523   -0.6899798573   -0.2701675655
C         3.5101019648   -0.5363950631    0.0644541846
O         3.4819387830   -1.3814542241    1.1662456594
C         3.3968134086    0.9275118337    0.4788115675
O         4.2801005527    1.2527400433    1.4738979213
H         2.4959255138   -0.4175010840   -1.8365842669
H         0.4858874715   -0.7205886004   -0.9364777731
H         2.3915221663    1.1195409226    0.8909704077
H         3.4890946448    1.6195655302   -0.3669892896
O         2.5280477682   -2.3288362048   -1.2377351365
H         2.5572663728   -2.8406283606   -0.4182018106
O         4.8016417842   -0.7941657620   -0.5210030551
O         4.9498229137   -0.0040302915   -1.6997553775
H         3.9968727551   -0.9696283648    1.8752359083
H         5.5202789268    0.7172239974   -1.3953234273
$end

$rem
BASIS = 6-311++G(2df,2p)
GUI = 2
JOB_TYPE = Frequency
METHOD = wB97M-V
SOLVENT_METHOD = SMD
SCF_ALGORITHM = DIIS_GDM
MAX_SCF_CYCLES = 400
SCF_CONVERGENCE = 7
THRESH = 12
$end
--------------------------------------------------------------

   27    -569.7690186555      5.47e-08  Convergence criterion met
 Total energy in the final basis set =     -569.7638093462
   20    -569.7690143664      8.80e-08  Convergence criterion met
 Total energy in the final basis set =     -569.7638082808
   20    -569.7690212107      9.04e-08  Convergence criterion met
 Total energy in the final basis set =     -569.7638083840
   20    -569.7690130290      8.86e-08  Convergence criterion met
 Total energy in the final basis set =     -569.7638082472
   20    -569.7690224698      8.78e-08  Convergence criterion met
 Total energy in the final basis set =     -569.7638081948
   20    -569.7690173825      8.90e-08  Convergence criterion met
 Total energy in the final basis set =     -569.7638081388
   20    -569.7690177000      8.95e-08  Convergence criterion met
 Total energy in the final basis set =     -569.7638082202
   20    -569.7690216827      8.88e-08  Convergence criterion met
 Total energy in the final basis set =     -569.7638087610
   20    -569.7690173862      8.86e-08  Convergence criterion met
 Total energy in the final basis set =     -569.7638088471
   20    -569.7690190817      8.90e-08  Convergence criterion met
 Total energy in the final basis set =     -569.7638089922
   20    -569.7690175836      8.88e-08  Convergence criterion met
 Total energy in the final basis set =     -569.7638090544
   20    -569.7690186009      8.90e-08  Convergence criterion met
 Total energy in the final basis set =     -569.7638088552
   20    -569.7690176770      8.89e-08  Convergence criterion met
 Total energy in the final basis set =     -569.7638088040
   20    -569.7690180071      8.87e-08  Convergence criterion met
 Total energy in the final basis set =     -569.7638091093
   20    -569.7690189108      8.92e-08  Convergence criterion met
 Total energy in the final basis set =     -569.7638091894

                    Orbital Energies (a.u.)
 --------------------------------------------------------------

 Alpha MOs
 -- Occupied --
-19.4069 -19.4003 -19.3997 -19.3633 -19.3504 -19.3486 -10.4648 -10.4513
-10.4031  -1.2820  -1.2153  -1.1927  -1.1697  -1.1398  -1.0411  -0.8821
 -0.7986  -0.7377  -0.6959  -0.6569  -0.6514  -0.6318  -0.6036  -0.5888
 -0.5772  -0.5580  -0.5479  -0.5344  -0.4964  -0.4689  -0.4569  -0.4437
 -0.4370  -0.4311  -0.4130  -0.4070  -0.3858

 Beta MOs
 -- Occupied --
-19.4069 -19.3997 -19.3777 -19.3633 -19.3503 -19.3486 -10.4647 -10.4513
-10.4033  -1.2818  -1.2147  -1.1885  -1.1400  -1.1238  -1.0407  -0.8773
 -0.7887  -0.7348  -0.6944  -0.6553  -0.6473  -0.6271  -0.5868  -0.5798
 -0.5709  -0.5429  -0.5312  -0.5211  -0.4934  -0.4658  -0.4546  -0.4367
 -0.4230  -0.4131  -0.4066  -0.3781

          Ground-State Mulliken Net Atomic Charges

     Atom                 Charge (a.u.)    Spin (a.u.)
  --------------------------------------------------------
      1 C                    -0.111593       0.000693
      2 O                    -0.425613       0.001944
      3 C                     0.172140       0.001632
      4 O                    -0.391715       0.001072
      5 C                    -0.316362      -0.003054
      6 O                    -0.205389       0.867850
      7 H                     0.293409       0.000294
      8 H                     0.340585       0.000623
      9 H                     0.278316       0.084365
     10 H                     0.264461       0.043537
     11 O                    -0.449159       0.000128
     12 H                     0.348587      -0.000141
     13 O                    -0.198654       0.000026
     14 O                    -0.273189       0.002862
     15 H                     0.332360      -0.001548
     16 H                     0.341815      -0.000282
  --------------------------------------------------------
  Sum of atomic charges =     0.000000

                    Cartesian Multipole Moments
 -----------------------------------------------------------------
    Charge (ESU x 10^10)
                 0.0000
    Dipole Moment (Debye)
         X      -1.7350      Y       3.9903      Z      -0.3239
       Tot       4.3632
    Quadrupole Moments (Debye-Ang)
        XX     -60.1900     XY      15.8834     YY     -56.5043
        XZ       2.3048     YZ      -8.5987     ZZ     -55.4099

             Standard Nuclear Orientation (Angstroms)
    I     Atom           X                Y                Z
 ----------------------------------------------------------------
    1      C       2.4059378213    -0.9697823144    -0.9038794469
    2      O       1.1817798523    -0.6899798573    -0.2701675655
    3      C       3.5101019648    -0.5363950631     0.0644541846
    4      O       3.4819387830    -1.3814542241     1.1662456594
    5      C       3.3968134086     0.9275118337     0.4788115675
    6      O       4.2801005527     1.2527400433     1.4738979213
    7      H       2.4959255138    -0.4175010840    -1.8365842669
    8      H       0.4858874715    -0.7205886004    -0.9364777731
    9      H       2.3915221663     1.1195409226     0.8909704077
   10      H       3.4890946448     1.6195655302    -0.3669892896
   11      O       2.5280477682    -2.3288362048    -1.2377351365
   12      H       2.5572663728    -2.8406283606    -0.4182018106
   13      O       4.8016417842    -0.7941657620    -0.5210030551
   14      O       4.9498229137    -0.0040302915    -1.6997553775
   15      H       3.9968727551    -0.9696283648     1.8752359083
   16      H       5.5202789268     0.7172239974    -1.3953234273
 ----------------------------------------------------------------

 Frequency:        51.79                  77.15                 139.08
 Force Cnst:      0.0088                 0.0228                 0.0558
 Red. Mass:       5.5446                 6.5154                 4.8922
 IR Intens:        6.993                  8.912                  2.722
 Frequency:       178.22                 246.13                 275.29
 Force Cnst:      0.1044                 0.1403                 0.1100
 Red. Mass:       5.5760                 3.9314                 2.4633
 IR Intens:       11.301                  4.550                115.718
 Frequency:       286.44                 288.67                 340.55
 Force Cnst:      0.2544                 0.0611                 0.1409
 Red. Mass:       5.2620                 1.2446                 2.0627
 IR Intens:        8.233                212.600                 53.100
 Frequency:       348.14                 377.34                 380.96
 Force Cnst:      0.1012                 0.1220                 0.0977
 Red. Mass:       1.4172                 1.4537                 1.1428
 IR Intens:      266.443                 20.965                152.474
 Frequency:       411.81                 498.00                 515.69
 Force Cnst:      0.3633                 1.0234                 0.6955
 Red. Mass:       3.6357                 7.0042                 4.4391
 IR Intens:       76.208                 43.769                 19.607
 Frequency:       603.88                 703.67                 745.75
 Force Cnst:      1.0914                 0.8513                 0.9970
 Red. Mass:       5.0794                 2.9181                 3.0426
 IR Intens:       91.488                 48.556                  8.456
 Frequency:       823.02                 987.55                1003.94
 Force Cnst:      1.8346                 1.8010                 3.7043
 Red. Mass:       4.5971                 3.1343                 6.2380
 IR Intens:       81.152                 68.028                 68.211
 Frequency:      1035.10                1051.32                1166.76
 Force Cnst:      4.4387                 1.5833                 1.1497
 Red. Mass:       7.0315                 2.4314                 1.4334
 IR Intens:       11.134                158.260                223.922
 Frequency:      1173.29                1222.09                1259.46
 Force Cnst:      1.3966                 1.2545                 1.8235
 Red. Mass:       1.7219                 1.4256                 1.9511
 IR Intens:       81.788                 64.408                175.338
 Frequency:      1283.81                1314.45                1325.10
 Force Cnst:      2.4686                 1.5281                 1.6458
 Red. Mass:       2.5422                 1.5011                 1.5908
 IR Intens:      335.377                134.485                 20.055
 Frequency:      1341.49                1401.07                1410.23
 Force Cnst:      1.8844                 1.8121                 1.3252
 Red. Mass:       1.7773                 1.5668                 1.1309
 IR Intens:       14.456                 33.403                 83.402
 Frequency:      1437.70                1489.00                2959.04
 Force Cnst:      1.5965                 2.6259                 5.5068
 Red. Mass:       1.3110                 2.0102                 1.0675
 IR Intens:       80.050                 48.414                 50.066
 Frequency:      3028.25                3131.87                3754.82
 Force Cnst:      5.8295                 6.2883                 8.8544
 Red. Mass:       1.0789                 1.0881                 1.0659
 IR Intens:        1.615                 20.196                145.621
 Frequency:      3760.16                3783.99                3823.10
 Force Cnst:      8.9019                 8.9919                 9.1869
 Red. Mass:       1.0686                 1.0659                 1.0668
 IR Intens:      173.385                128.571                149.798

 STANDARD THERMODYNAMIC QUANTITIES AT   298.15 K  AND     1.00 ATM

   This Molecule has  0 Imaginary Frequencies
   Zero point vibrational energy:       73.530 kcal/mol

   Atom    1 Element C  Has Mass   12.00000
   Atom    2 Element O  Has Mass   15.99491
   Atom    3 Element C  Has Mass   12.00000
   Atom    4 Element O  Has Mass   15.99491
   Atom    5 Element C  Has Mass   12.00000
   Atom    6 Element O  Has Mass   15.99491
   Atom    7 Element H  Has Mass    1.00783
   Atom    8 Element H  Has Mass    1.00783
   Atom    9 Element H  Has Mass    1.00783
   Atom   10 Element H  Has Mass    1.00783
   Atom   11 Element O  Has Mass   15.99491
   Atom   12 Element H  Has Mass    1.00783
   Atom   13 Element O  Has Mass   15.99491
   Atom   14 Element O  Has Mass   15.99491
   Atom   15 Element H  Has Mass    1.00783
   Atom   16 Element H  Has Mass    1.00783
   Molecular Mass:   139.024270 amu
   Principal axes and moments of inertia in amu*Bohr^2:
                             1           2           3
    Eigenvalues --      866.71873  1250.42321  1567.10551
          X               0.66905    -0.64087    -0.37638
          Y               0.64025     0.23981     0.72977
          Z               0.37743     0.72923    -0.57076
   Rotational Symmetry Number is   1
   The Molecule is an Asymmetric Top
   Translational Enthalpy:        0.889 kcal/mol
   Rotational Enthalpy:           0.889 kcal/mol
   Vibrational Enthalpy:         78.252 kcal/mol
   gas constant (RT):             0.592 kcal/mol
   Translational Entropy:        40.700  cal/mol.K
   Rotational Entropy:           28.920  cal/mol.K
   Vibrational Entropy:          28.710  cal/mol.K

   Total Enthalpy:               80.622 kcal/mol
   Total Entropy:                98.330  cal/mol.K
 Total job time:  15802.05s(wall), 221667.94s(cpu)
        *  Thank you very much for using Q-Chem.  Have a nice day.  *
