 Q-Chem 5.4, Q-Chem, Inc., Pleasanton, CA (2021)
 Q-Chem 5.4.1 for Intel X86 EM64T Linux

User input:
--------------------------------------------------------------
$molecule
0 2
C         2.3973328119   -0.9711332958   -0.9172826461
O         1.1811252585   -0.6682180952   -0.2749285431
C         3.5066173355   -0.5328771753    0.0429901397
O         3.4731234150   -1.3787718581    1.1488050142
C         3.4081011667    0.9279799240    0.4816211410
O         4.2696275725    1.1917526545    1.5257367733
H         2.4900494172   -0.4409251185   -1.8683484833
H         0.4757248595   -0.7854863877   -0.9325283259
H         2.3933844787    1.1228778993    0.8782459373
H         3.5501858061    1.6410784158   -0.3429338270
O         2.5162305131   -2.3392336909   -1.2190164575
H         2.5587153238   -2.8070557042   -0.3653338657
O         4.7962208379   -0.7968907836   -0.5449614658
O         4.9380776115    0.0258646562   -1.7138315906
H         3.9877502153   -0.9326016734    1.8490962539
H         5.5307660768    0.7272324331   -1.3838315544
$end

$rem
BASIS = 6-311++G(2df,2p)
GUI = 2
JOB_TYPE = Optimization
METHOD = wB97M-V
SCF_ALGORITHM = DIIS_GDM
MAX_SCF_CYCLES = 400
GEOM_OPT_MAX_CYCLES = 150
SCF_CONVERGENCE = 7
THRESH = 12
Solvent_method = SMD
$end
--------------------------------------------------------------

   27    -569.7680660639      4.76e-08  Convergence criterion met
 Total energy in the final basis set =     -569.7630610958
   20    -569.7688363540      7.45e-08  Convergence criterion met
 Total energy in the final basis set =     -569.7636924262
   20    -569.7686881749      8.19e-08  Convergence criterion met
 Total energy in the final basis set =     -569.7635685526
   20    -569.7689811492      6.97e-08  Convergence criterion met
 Total energy in the final basis set =     -569.7637889202
   20    -569.7689894795      8.63e-08  Convergence criterion met
 Total energy in the final basis set =     -569.7637989511
   20    -569.7690055533      8.02e-08  Convergence criterion met
 Total energy in the final basis set =     -569.7638047263
   20    -569.7690209446      8.06e-08  Convergence criterion met
 Total energy in the final basis set =     -569.7638087231

             Standard Nuclear Orientation (Angstroms)
    I     Atom           X                Y                Z
 ----------------------------------------------------------------
    1      C       2.4059378213    -0.9697823144    -0.9038794469
    2      O       1.1817798523    -0.6899798573    -0.2701675655
    3      C       3.5101019648    -0.5363950631     0.0644541846
    4      O       3.4819387830    -1.3814542241     1.1662456594
    5      C       3.3968134086     0.9275118337     0.4788115675
    6      O       4.2801005527     1.2527400433     1.4738979213
    7      H       2.4959255138    -0.4175010840    -1.8365842669
    8      H       0.4858874715    -0.7205886004    -0.9364777731
    9      H       2.3915221663     1.1195409226     0.8909704077
   10      H       3.4890946448     1.6195655302    -0.3669892896
   11      O       2.5280477682    -2.3288362048    -1.2377351365
   12      H       2.5572663728    -2.8406283606    -0.4182018106
   13      O       4.8016417842    -0.7941657620    -0.5210030551
   14      O       4.9498229137    -0.0040302915    -1.6997553775
   15      H       3.9968727551    -0.9696283648     1.8752359083
   16      H       5.5202789268     0.7172239974    -1.3953234273
 ----------------------------------------------------------------

   20    -569.7690186551      8.22e-08  Convergence criterion met
 Total energy in the final basis set =     -569.7638093458
 Final energy is   -569.763809345802
 **  OPTIMIZATION CONVERGED  **

                    Orbital Energies (a.u.)
 --------------------------------------------------------------

 Alpha MOs
 -- Occupied --
-19.4069 -19.4003 -19.3997 -19.3633 -19.3504 -19.3486 -10.4648 -10.4513
-10.4031  -1.2820  -1.2153  -1.1927  -1.1697  -1.1398  -1.0410  -0.8821
 -0.7986  -0.7377  -0.6959  -0.6569  -0.6514  -0.6318  -0.6036  -0.5888
 -0.5772  -0.5580  -0.5479  -0.5344  -0.4964  -0.4689  -0.4569  -0.4437
 -0.4370  -0.4311  -0.4130  -0.4070  -0.3858

 Beta MOs
 -- Occupied --
-19.4069 -19.3997 -19.3777 -19.3633 -19.3503 -19.3486 -10.4647 -10.4513
-10.4033  -1.2818  -1.2147  -1.1885  -1.1400  -1.1238  -1.0407  -0.8773
 -0.7887  -0.7348  -0.6944  -0.6553  -0.6473  -0.6271  -0.5868  -0.5798
 -0.5708  -0.5429  -0.5312  -0.5211  -0.4934  -0.4658  -0.4546  -0.4367
 -0.4231  -0.4131  -0.4066  -0.3781

          Ground-State Mulliken Net Atomic Charges

     Atom                 Charge (a.u.)    Spin (a.u.)
  --------------------------------------------------------
      1 C                    -0.111536       0.000692
      2 O                    -0.425613       0.001944
      3 C                     0.172111       0.001638
      4 O                    -0.391719       0.001072
      5 C                    -0.316377      -0.003058
      6 O                    -0.205383       0.867851
      7 H                     0.293400       0.000294
      8 H                     0.340588       0.000623
      9 H                     0.278313       0.084365
     10 H                     0.264476       0.043534
     11 O                    -0.449160       0.000128
     12 H                     0.348589      -0.000141
     13 O                    -0.198779       0.000025
     14 O                    -0.273152       0.002863
     15 H                     0.332357      -0.001548
     16 H                     0.341885      -0.000282
  --------------------------------------------------------
  Sum of atomic charges =     0.000000

                    Cartesian Multipole Moments
 -----------------------------------------------------------------
    Charge (ESU x 10^10)
                 0.0000
    Dipole Moment (Debye)
         X      -1.7352      Y       3.9902      Z      -0.3227
       Tot       4.3631
    Quadrupole Moments (Debye-Ang)
        XX     -60.1922     XY      15.8829     YY     -56.5049
        XZ       2.3130     YZ      -8.5963     ZZ     -55.4136

 Total job time:  1335.50s(wall), 18988.79s(cpu)
        *  Thank you very much for using Q-Chem.  Have a nice day.  *
