 Q-Chem 5.4, Q-Chem, Inc., Pleasanton, CA (2021)
 Q-Chem 5.4.1 for Intel X86 EM64T Linux

User input:
--------------------------------------------------------------
$molecule
0 2
C        -0.6411881012   -0.0101075728    1.0489514734
C        -1.0346597111   -1.1547508318    1.7693899992
C        -2.0250633091   -2.0050314638    1.2265041788
C        -2.5115185535   -1.7682552935   -0.0369448441
C        -2.0541500683   -0.6666930911   -0.7675822904
C        -1.1273663425    0.2216207777   -0.2275274805
C        -0.6336544767    1.3980170794   -1.0250442952
H         0.0654821727    0.6795736414    1.4933973518
H        -0.7783221983   -1.2379061542    2.8145913205
H        -2.3745554803   -2.8488206263    1.8047655931
H        -3.2533955969   -2.4259301596   -0.4680355845
H        -2.4400195712   -0.4868080569   -1.7634583434
H        -1.3284308249    1.6193146241   -1.8366464549
O         0.6817215639    1.1759004557   -1.5466697793
H        -0.5539035092    2.2782303185   -0.3902331882
H         0.6353344314    0.4320854843   -2.1573181599
O         0.6280053071   -2.3135247108    1.2624109380
H         1.2722244682   -1.6322959202    1.5059138657
$end

$rem
BASIS = 6-311++G(2df,2p)
GUI = 2
JOB_TYPE = Frequency
METHOD = wB97M-V
SOLVENT_METHOD = SMD
SCF_ALGORITHM = DIIS_GDM
MAX_SCF_CYCLES = 400
SCF_CONVERGENCE = 7
THRESH = 12
$end

--------------------------------------------------------------

   24    -422.5057397163      9.87e-08  Convergence criterion met
 Total energy in the final basis set =     -422.5001310613
   21    -422.5057388982      8.55e-08  Convergence criterion met
 Total energy in the final basis set =     -422.5001303537
   21    -422.5057391307      8.61e-08  Convergence criterion met
 Total energy in the final basis set =     -422.5001303637
   21    -422.5057392584      8.44e-08  Convergence criterion met
 Total energy in the final basis set =     -422.5001301641
   21    -422.5057382942      8.59e-08  Convergence criterion met
 Total energy in the final basis set =     -422.5001300760
   21    -422.5057388606      8.54e-08  Convergence criterion met
 Total energy in the final basis set =     -422.5001300405
   21    -422.5057384635      8.74e-08  Convergence criterion met
 Total energy in the final basis set =     -422.5001299707
   21    -422.5057393024      8.37e-08  Convergence criterion met
 Frequency:      -267.24                  42.03                  86.54
 Force Cnst:      0.4888                 0.0032                 0.0354
 Red. Mass:      11.6173                 3.0687                 8.0325
 IR Intens:      152.725                  5.950                  5.016
 Frequency:       124.89                 161.79                 175.25
 Force Cnst:      0.0424                 0.0266                 0.0334
 Red. Mass:       4.6101                 1.7249                 1.8482
 IR Intens:        2.834                117.651                 72.323
 Frequency:       293.61                 315.58                 377.19
 Force Cnst:      0.0848                 0.1454                 0.1654
 Red. Mass:       1.6690                 2.4788                 1.9729
 IR Intens:      102.961                 17.336                137.521
 Frequency:       389.17                 486.59                 597.06
 Force Cnst:      0.2382                 0.6171                 1.0014
 Red. Mass:       2.6693                 4.4235                 4.7677
 IR Intens:       24.380                  9.404                 16.236
 Frequency:       616.40                 677.65                 744.59
 Force Cnst:      1.3957                 0.4879                 0.3517
 Red. Mass:       6.2348                 1.8032                 1.0767
 IR Intens:       10.428                110.922                 80.878
 Frequency:       790.76                 831.89                 898.06
 Force Cnst:      0.6569                 1.2041                 0.6037
 Red. Mass:       1.7829                 2.9531                 1.2705
 IR Intens:      109.499                  6.648                 67.107
 Frequency:       942.06                 969.86                 990.70
 Force Cnst:      0.7950                 0.8440                 0.8555
 Red. Mass:       1.5204                 1.5229                 1.4793
 IR Intens:       19.690                 13.822                157.949
 Frequency:      1007.98                1026.85                1036.84
 Force Cnst:      2.3894                 0.9859                 2.3437
 Red. Mass:       3.9915                 1.5870                 3.7002
 IR Intens:        4.428                 15.903                154.395
 Frequency:      1044.46                1092.05                1163.77
 Force Cnst:      1.2466                 1.0949                 0.8818
 Red. Mass:       1.9395                 1.5583                 1.1051
 IR Intens:       13.937                 20.491                  4.297
 Frequency:      1176.42                1200.94                1237.70
 Force Cnst:      0.9710                 0.9795                 2.2344
 Red. Mass:       1.1908                 1.1527                 2.4757
 IR Intens:       12.619                 16.104                 35.368
 Frequency:      1322.62                1345.05                1384.50
 Force Cnst:      4.6648                 1.4261                 1.3491
 Red. Mass:       4.5260                 1.3379                 1.1946
 IR Intens:       29.533                  4.184                 12.525
 Frequency:      1418.43                1468.51                1496.31
 Force Cnst:      1.5324                 2.6709                 1.4334
 Red. Mass:       1.2928                 2.1021                 1.0866
 IR Intens:       69.377                 20.370                  3.777
 Frequency:      1516.31                1619.94                1632.60
 Force Cnst:      3.2928                 8.0434                 8.8292
 Red. Mass:       2.4308                 5.2023                 5.6223
 IR Intens:       17.959                120.228                140.416
 Frequency:      3065.33                3126.73                3186.51
 Force Cnst:      5.8851                 6.3563                 6.5164
 Red. Mass:       1.0630                 1.1035                 1.0892
 IR Intens:       74.139                 29.487                  8.767
 Frequency:      3190.90                3202.76                3215.22
 Force Cnst:      6.5418                 6.5852                 6.6705
 Red. Mass:       1.0905                 1.0896                 1.0952
 IR Intens:        7.429                  9.353                 16.256
 Frequency:      3225.94                3777.81                3826.36
 Force Cnst:      6.7139                 8.9768                 9.2006
 Red. Mass:       1.0950                 1.0676                 1.0666
 IR Intens:       19.334                246.381                 97.641

 STANDARD THERMODYNAMIC QUANTITIES AT   298.15 K  AND     1.00 ATM

   This Molecule has  1 Imaginary Frequencies
   Zero point vibrational energy:       90.807 kcal/mol

   Atom    1 Element C  Has Mass   12.00000
   Atom    2 Element C  Has Mass   12.00000
   Atom    3 Element C  Has Mass   12.00000
   Atom    4 Element C  Has Mass   12.00000
   Atom    5 Element C  Has Mass   12.00000
   Atom    6 Element C  Has Mass   12.00000
   Atom    7 Element C  Has Mass   12.00000
   Atom    8 Element H  Has Mass    1.00783
   Atom    9 Element H  Has Mass    1.00783
   Atom   10 Element H  Has Mass    1.00783
   Atom   11 Element H  Has Mass    1.00783
   Atom   12 Element H  Has Mass    1.00783
   Atom   13 Element H  Has Mass    1.00783
   Atom   14 Element O  Has Mass   15.99491
   Atom   15 Element H  Has Mass    1.00783
   Atom   16 Element H  Has Mass    1.00783
   Atom   17 Element O  Has Mass   15.99491
   Atom   18 Element H  Has Mass    1.00783
   Molecular Mass:   125.060290 amu
   Principal axes and moments of inertia in amu*Bohr^2:
                             1           2           3
    Eigenvalues --      725.11063  1467.25600  1841.16546
          X               0.26457     0.92478    -0.27346
          Y               0.75456    -0.02194     0.65587
          Z              -0.60053     0.37986     0.70361
   Rotational Symmetry Number is   1
   The Molecule is an Asymmetric Top
   Translational Enthalpy:        0.889 kcal/mol
   Rotational Enthalpy:           0.889 kcal/mol
   Vibrational Enthalpy:         94.813 kcal/mol
   gas constant (RT):             0.592 kcal/mol
   Translational Entropy:        40.384  cal/mol.K
   Rotational Entropy:           29.061  cal/mol.K
   Vibrational Entropy:          25.389  cal/mol.K

   Total Enthalpy:               97.182 kcal/mol
   Total Entropy:                94.835  cal/mol.K
 Total job time:  14503.60s(wall), 372551.56s(cpu)
        *  Thank you very much for using Q-Chem.  Have a nice day.  *
 Q-Chem 5.4, Q-Chem, Inc., Pleasanton, CA (2021)
 Q-Chem 5.4.1 for Intel X86 EM64T Linux

User input:
--------------------------------------------------------------

$molecule
read
$end

$rem
JOBTYPE            rpath
SCF_GUESS          read
RPATH_MAX_CYCLES   30
BASIS = 6-311++G(2df,2p)
METHOD = wB97M-V
SOLVENT_METHOD = SMD
SCF_ALGORITHM = DIIS_GDM
SCF_CONVERGENCE = 7
THRESH = 12
$end
--------------------------------------------------------------

 Total energy in the final basis set =     -422.5222024192
   17    -422.5284814044      6.51e-08  Convergence criterion met
 Total energy in the final basis set =     -422.5227959019
   18    -422.5283321277      6.58e-08  Convergence criterion met
 Total energy in the final basis set =     -422.5226244767
   17    -422.5285451459      5.91e-08  Convergence criterion met
 Total energy in the final basis set =     -422.5228522552
   17    -422.5280428584      8.39e-08  Convergence criterion met
 Total energy in the final basis set =     -422.5223475679
   17    -422.5286690545      6.90e-08  Convergence criterion met
 Total energy in the final basis set =     -422.5229758093
   15    -422.5285995255      7.83e-08  Convergence criterion met
 Total energy in the final basis set =     -422.5229160822
   15    -422.5286926068      9.69e-08  Convergence criterion met
 Total energy in the final basis set =     -422.5230029198

                    Orbital Energies (a.u.)
 --------------------------------------------------------------

 Alpha MOs
 -- Occupied --
-19.3378 -19.3363 -10.3976 -10.3846 -10.3551 -10.3487 -10.3481 -10.3480
-10.3427  -1.1525  -1.1512  -0.9787  -0.8933  -0.8636  -0.7973  -0.7424
 -0.7040  -0.6359  -0.6218  -0.6066  -0.5752  -0.5662  -0.5395  -0.5325
 -0.5241  -0.5003  -0.4677  -0.4526  -0.4485  -0.4233  -0.4014  -0.3848
 -0.3579  -0.2786

 Beta MOs
 -- Occupied --
-19.3365 -19.3353 -10.3983 -10.3845 -10.3509 -10.3478 -10.3452 -10.3430
-10.3427  -1.1525  -1.1463  -0.9722  -0.8901  -0.8537  -0.7927  -0.7344
 -0.6999  -0.6329  -0.6168  -0.6029  -0.5703  -0.5623  -0.5373  -0.5304
 -0.5204  -0.4929  -0.4631  -0.4502  -0.4229  -0.4199  -0.3994  -0.3823
 -0.3407

          Ground-State Mulliken Net Atomic Charges

     Atom                 Charge (a.u.)    Spin (a.u.)
  --------------------------------------------------------
      1 C                    -0.275364       0.413090
      2 C                    -0.430842      -0.018275
      3 C                    -0.183555       0.356492
      4 C                    -0.296378      -0.143040
      5 C                    -0.528987       0.511600
      6 C                     0.549157      -0.171892
      7 C                    -0.496926       0.010791
      8 H                     0.296179      -0.007572
      9 H                     0.218531       0.019601
     10 H                     0.305408      -0.007524
     11 H                     0.293569       0.005472
     12 H                     0.295209      -0.009256
     13 H                     0.200127      -0.000198
     14 O                    -0.397877      -0.003005
     15 H                     0.205434      -0.002764
     16 H                     0.327496       0.000820
     17 O                    -0.410163       0.042524
     18 H                     0.328982       0.003134
  --------------------------------------------------------
  Sum of atomic charges =     0.000000

                    Cartesian Multipole Moments
 -----------------------------------------------------------------
    Charge (ESU x 10^10)
                 0.0000
    Dipole Moment (Debye)
         X      -1.9838      Y       1.0024      Z       0.0818
       Tot       2.2242
    Quadrupole Moments (Debye-Ang)
        XX     -51.4384     XY       0.5984     YY     -62.3501
        XZ       5.1267     YZ       3.2606     ZZ     -46.1241

             Standard Nuclear Orientation (Angstroms)
    I     Atom           X                Y                Z
 ----------------------------------------------------------------
    1      C      -0.6411881012    -0.0101075728     1.0489514734
    2      C      -1.0346597111    -1.1547508318     1.7693899992
    3      C      -2.0250633091    -2.0050314638     1.2265041788
    4      C      -2.5115185535    -1.7682552935    -0.0369448441
    5      C      -2.0541500683    -0.6666930911    -0.7675822904
    6      C      -1.1273663425     0.2216207777    -0.2275274805
    7      C      -0.6336544767     1.3980170794    -1.0250442952
    8      H       0.0654821727     0.6795736414     1.4933973518
    9      H      -0.7783221983    -1.2379061542     2.8145913205
   10      H      -2.3745554803    -2.8488206263     1.8047655931
   11      H      -3.2533955969    -2.4259301596    -0.4680355845
   12      H      -2.4400195712    -0.4868080569    -1.7634583434
   13      H      -1.3284308249     1.6193146241    -1.8366464549
   14      O       0.6817215639     1.1759004557    -1.5466697793
   15      H      -0.5539035092     2.2782303185    -0.3902331882
   16      H       0.6353344314     0.4320854843    -2.1573181599
   17      O       0.6280053071    -2.3135247108     1.2624109380
   18      H       1.2722244682    -1.6322959202     1.5059138657
 ----------------------------------------------------------------

 Total job time:  5286.57s(wall), 135659.76s(cpu)
        *  Thank you very much for using Q-Chem.  Have a nice day.  *
