 Q-Chem 5.4, Q-Chem, Inc., Pleasanton, CA (2021)
 Q-Chem 5.4.1 for Intel X86 EM64T Linux

User input:
--------------------------------------------------------------
$molecule
0 2
C   -0.5326998    0.0025343    1.0230089
C   -0.9680984   -1.1061387    1.7802259
C   -1.8563514   -2.0070855    1.2371255
C   -2.3613366   -1.7976328   -0.0475639
C   -1.9848859   -0.6759702   -0.7817256
C   -1.0941961    0.2408942   -0.2544840
C   -0.6553643    1.4407344   -1.0471338
H    0.0088052    0.7990370    1.5126621
H   -0.6832735   -1.1059187    2.9281627
H   -2.1743327   -2.8689676    1.8069610
H   -3.0620138   -2.5040953   -0.4709462
H   -2.4004170   -0.5102611   -1.7676879
H   -1.3991399    1.6865072   -1.8048774
O    0.6226437    1.2217846   -1.6668667
H   -0.5244144    2.3000985   -0.3928305
H    0.5012626    0.5717335   -2.3685593
O    0.1766120   -2.2532039    1.1952170
H    0.9137405   -2.1794314    1.8257765
$end

$rem
BASIS = 6-311++G(2df,2p)
GUI = 2
JOB_TYPE = Frequency
METHOD = wB97M-V
SCF_ALGORITHM = DIIS_GDM
MAX_SCF_CYCLES = 400
SCF_CONVERGENCE = 6
THRESH = 11
SYMMETRY_IGNORE = 1
solvent_method = SMD
$end

--------------------------------------------------------------

   18    -422.4759827273      8.50e-07  Convergence criterion met
 Total energy in the final basis set =     -422.4702473020
   16    -422.4759132419      4.51e-07  Convergence criterion met
 Total energy in the final basis set =     -422.4701775678
   16    -422.4760510800      4.37e-07  Convergence criterion met
 Total energy in the final basis set =     -422.4703159010
   16    -422.4760640370      4.52e-07  Convergence criterion met
 Total energy in the final basis set =     -422.4703282225
   16    -422.4758993041      4.51e-07  Convergence criterion met
 Total energy in the final basis set =     -422.4701642653
   16    -422.4759303631      4.49e-07  Convergence criterion met
 Total energy in the final basis set =     -422.4701947916
   16    -422.4760331646      4.34e-07  Convergence criterion met
 Total energy in the final basis set =     -422.4702978814
   16    -422.4761231997      4.47e-07  Convergence criterion met
 Frequency:      -525.81                -133.27                 -22.31
 Force Cnst:      1.6258                 0.0117                 0.0010
 Red. Mass:       9.9805                 1.1147                 3.3127
 IR Intens:       56.898                251.635                  7.729
 Frequency:        72.61                 175.51                 261.10
 Force Cnst:      0.0238                 0.0762                 0.0882
 Red. Mass:       7.6640                 4.2011                 2.1955
 IR Intens:       14.808                  7.775                 15.924
 Frequency:       295.21                 332.45                 387.72
 Force Cnst:      0.1165                 0.1136                 0.3090
 Red. Mass:       2.2683                 1.7441                 3.4885
 IR Intens:      161.537                 91.558                 50.546
 Frequency:       406.25                 499.35                 581.48
 Force Cnst:      0.3303                 0.5582                 0.9684
 Red. Mass:       3.3966                 3.7997                 4.8610
 IR Intens:       26.476                 11.889                 14.044
 Frequency:       623.86                 654.93                 780.48
 Force Cnst:      1.2262                 0.4960                 0.5371
 Red. Mass:       5.3475                 1.9628                 1.4965
 IR Intens:       25.907                 95.003                 65.596
 Frequency:       809.80                 854.33                 927.27
 Force Cnst:      1.0525                 0.8923                 0.7272
 Red. Mass:       2.7241                 2.0750                 1.4354
 IR Intens:        2.616                 52.672                 18.382
 Frequency:       940.96                 959.68                 995.28
 Force Cnst:      0.8134                 0.6511                 0.9204
 Red. Mass:       1.5592                 1.1998                 1.5770
 IR Intens:       33.460                 29.712                  3.706
 Frequency:      1004.66                1022.30                1042.38
 Force Cnst:      2.0065                 3.7020                 1.3290
 Red. Mass:       3.3741                 6.0122                 2.0759
 IR Intens:        1.953                151.686                  6.138
 Frequency:      1096.24                1146.71                1169.74
 Force Cnst:      1.0732                 1.2108                 0.9630
 Red. Mass:       1.5157                 1.5629                 1.1946
 IR Intens:       22.055                 33.869                 19.991
 Frequency:      1220.55                1223.92                1285.81
 Force Cnst:      1.0747                 1.5523                 1.1381
 Red. Mass:       1.2244                 1.7589                 1.1684
 IR Intens:       10.672                 11.139                 32.510
 Frequency:      1302.18                1356.46                1375.19
 Force Cnst:      1.9758                 1.5878                 1.3552
 Red. Mass:       1.9776                 1.4647                 1.2163
 IR Intens:       44.542                  8.001                  8.638
 Frequency:      1403.81                1480.83                1485.15
 Force Cnst:      1.4473                 2.2250                 1.5751
 Red. Mass:       1.2465                 1.7222                 1.2120
 IR Intens:       71.629                 14.739                  5.021
 Frequency:      1544.71                1567.33                1704.87
 Force Cnst:      4.5050                 4.6345                 8.9729
 Red. Mass:       3.2045                 3.2020                 5.2396
 IR Intens:       35.834                  5.775                  9.800
 Frequency:      2366.30                3072.62                3130.17
 Force Cnst:      3.6260                 5.8987                 6.3855
 Red. Mass:       1.0991                 1.0604                 1.1061
 IR Intens:       32.098                 70.774                 32.487
 Frequency:      3186.19                3201.97                3213.92
 Force Cnst:      6.5084                 6.5966                 6.6530
 Red. Mass:       1.0881                 1.0920                 1.0932
 IR Intens:       10.398                 13.931                 17.718
 Frequency:      3215.10                3704.44                3817.02
 Force Cnst:      6.6595                 8.6256                 9.1564
 Red. Mass:       1.0935                 1.0668                 1.0667
 IR Intens:        0.930                 79.732                102.642

 STANDARD THERMODYNAMIC QUANTITIES AT   298.15 K  AND     1.00 ATM

   This Molecule has  3 Imaginary Frequencies
   Zero point vibrational energy:       89.918 kcal/mol

   Atom    1 Element C  Has Mass   12.00000
   Atom    2 Element C  Has Mass   12.00000
   Atom    3 Element C  Has Mass   12.00000
   Atom    4 Element C  Has Mass   12.00000
   Atom    5 Element C  Has Mass   12.00000
   Atom    6 Element C  Has Mass   12.00000
   Atom    7 Element C  Has Mass   12.00000
   Atom    8 Element H  Has Mass    1.00783
   Atom    9 Element H  Has Mass    1.00783
   Atom   10 Element H  Has Mass    1.00783
   Atom   11 Element H  Has Mass    1.00783
   Atom   12 Element H  Has Mass    1.00783
   Atom   13 Element H  Has Mass    1.00783
   Atom   14 Element O  Has Mass   15.99491
   Atom   15 Element H  Has Mass    1.00783
   Atom   16 Element H  Has Mass    1.00783
   Atom   17 Element O  Has Mass   15.99491
   Atom   18 Element H  Has Mass    1.00783
   Molecular Mass:   125.060290 amu
   Principal axes and moments of inertia in amu*Bohr^2:
                             1           2           3
    Eigenvalues --      601.68907  1500.56954  1766.29843
          X               0.25092     0.87316    -0.41789
          Y               0.75161     0.09631     0.65254
          Z              -0.61002     0.47783     0.63210
   Rotational Symmetry Number is   1
   The Molecule is an Asymmetric Top
   Translational Enthalpy:        0.889 kcal/mol
   Rotational Enthalpy:           0.889 kcal/mol
   Vibrational Enthalpy:         92.824 kcal/mol
   gas constant (RT):             0.592 kcal/mol
   Translational Entropy:        40.384  cal/mol.K
   Rotational Entropy:           28.857  cal/mol.K
   Vibrational Entropy:          16.366  cal/mol.K

   Total Enthalpy:               95.194 kcal/mol
   Total Entropy:                85.608  cal/mol.K
 Total job time:  11224.70s(wall), 289176.40s(cpu)
        *  Thank you very much for using Q-Chem.  Have a nice day.  *
 Q-Chem 5.4, Q-Chem, Inc., Pleasanton, CA (2021)
 Q-Chem 5.4.1 for Intel X86 EM64T Linux

User input:
--------------------------------------------------------------

$rem
JOBTYPE = ts
SCF_GUESS = read
GEOM_OPT_HESSIAN = read
MAX_SCF_CYCLES = 350
GEOM_OPT_DMAX = 60
GEOM_OPT_MAX_CYCLES = 250
METHOD = wB97M-v
BASIS = 6-311++G(2df,2p)
SCF_CONVERGENCE = 7
THRESH = 12
SCF_ALGORITHM = DIIS_GDM
solvent_method = SMD
$end

$molecule
read
$end
--------------------------------------------------------------

   21    -422.5057366833      8.59e-08  Convergence criterion met
 Total energy in the final basis set =     -422.5001294146
   21    -422.5057366225      8.37e-08  Convergence criterion met
 Total energy in the final basis set =     -422.5001296380
   21    -422.5057238347      8.24e-08  Convergence criterion met
 Total energy in the final basis set =     -422.5001223853
   21    -422.5057282797      8.73e-08  Convergence criterion met
 Total energy in the final basis set =     -422.5001212911
   21    -422.5057411825      8.91e-08  Convergence criterion met
 Total energy in the final basis set =     -422.5001291169
   21    -422.5057371708      8.57e-08  Convergence criterion met
 Total energy in the final basis set =     -422.5001301436

             Standard Nuclear Orientation (Angstroms)
    I     Atom           X                Y                Z
 ----------------------------------------------------------------
    1      C      -0.6411881012    -0.0101075728     1.0489514734
    2      C      -1.0346597111    -1.1547508318     1.7693899992
    3      C      -2.0250633091    -2.0050314638     1.2265041788
    4      C      -2.5115185535    -1.7682552935    -0.0369448441
    5      C      -2.0541500683    -0.6666930911    -0.7675822904
    6      C      -1.1273663425     0.2216207777    -0.2275274805
    7      C      -0.6336544767     1.3980170794    -1.0250442952
    8      H       0.0654821727     0.6795736414     1.4933973518
    9      H      -0.7783221983    -1.2379061542     2.8145913205
   10      H      -2.3745554803    -2.8488206263     1.8047655931
   11      H      -3.2533955969    -2.4259301596    -0.4680355845
   12      H      -2.4400195712    -0.4868080569    -1.7634583434
   13      H      -1.3284308249     1.6193146241    -1.8366464549
   14      O       0.6817215639     1.1759004557    -1.5466697793
   15      H      -0.5539035092     2.2782303185    -0.3902331882
   16      H       0.6353344314     0.4320854843    -2.1573181599
   17      O       0.6280053071    -2.3135247108     1.2624109380
   18      H       1.2722244682    -1.6322959202     1.5059138657
 ----------------------------------------------------------------

   21    -422.5057397166      8.65e-08  Convergence criterion met
 Total energy in the final basis set =     -422.5001310617
 Final energy is   -422.500131061675
 **  OPTIMIZATION CONVERGED  **

                    Orbital Energies (a.u.)
 --------------------------------------------------------------

 Alpha MOs
 -- Occupied --
-19.3425 -19.3378 -10.3866 -10.3744 -10.3592 -10.3590 -10.3558 -10.3544
-10.3485  -1.1540  -1.0971  -0.9958  -0.8985  -0.8802  -0.8010  -0.7349
 -0.7109  -0.6411  -0.6104  -0.5800  -0.5668  -0.5571  -0.5439  -0.5327
 -0.5257  -0.5090  -0.4729  -0.4545  -0.4432  -0.4331  -0.4170  -0.3933
 -0.3541  -0.3240

 Beta MOs
 -- Occupied --
-19.3380 -19.3249 -10.3865 -10.3743 -10.3563 -10.3560 -10.3556 -10.3533
-10.3498  -1.1543  -1.0565  -0.9912  -0.8969  -0.8749  -0.7988  -0.7319
 -0.7089  -0.6397  -0.6092  -0.5769  -0.5648  -0.5471  -0.5373  -0.5274
 -0.5234  -0.4811  -0.4690  -0.4512  -0.4324  -0.3967  -0.3938  -0.3684
 -0.3454

          Ground-State Mulliken Net Atomic Charges

     Atom                 Charge (a.u.)    Spin (a.u.)
  --------------------------------------------------------
      1 C                    -0.153252       0.203962
      2 C                    -0.182972      -0.027914
      3 C                    -0.364982       0.175566
      4 C                    -0.393234      -0.082628
      5 C                    -0.271644       0.208206
      6 C                     0.229253      -0.091822
      7 C                    -0.522390       0.006090
      8 H                     0.301686      -0.003722
      9 H                     0.365331       0.010458
     10 H                     0.284559      -0.003558
     11 H                     0.288280       0.002099
     12 H                     0.278506      -0.003571
     13 H                     0.201388      -0.000163
     14 O                    -0.397533      -0.002374
     15 H                     0.205250      -0.001386
     16 H                     0.328587       0.000463
     17 O                    -0.506606       0.620206
     18 H                     0.309773      -0.009912
  --------------------------------------------------------
  Sum of atomic charges =    -0.000000

                    Cartesian Multipole Moments
 -----------------------------------------------------------------
    Charge (ESU x 10^10)
                 0.0000
    Dipole Moment (Debye)
         X      -3.4336      Y       1.9616      Z      -0.2770
       Tot       3.9642
    Quadrupole Moments (Debye-Ang)
        XX     -49.9936     XY       3.7315     YY     -63.7773
        XZ       4.2256     YZ       4.2817     ZZ     -45.3871

 Total job time:  5940.36s(wall), 152549.39s(cpu)
        *  Thank you very much for using Q-Chem.  Have a nice day.  *
