 Q-Chem 5.4, Q-Chem, Inc., Pleasanton, CA (2021)
 Q-Chem 5.4.1 for Intel X86 EM64T Linux

User input:
--------------------------------------------------------------
$molecule
0 2
H         0.5975412937    1.4150050574    1.9989805386
C         0.0604941438    1.4039421775    1.0593498098
C        -1.3536991388    1.4015264431    1.0747726911
H        -1.8863848923    1.4130135969    2.0143839163
C        -2.0668689809    1.4014878971   -0.1463162618
H        -3.1491565101    1.4159383602   -0.1251550765
C        -1.4169942096    1.3879164563   -1.3369195954
H        -1.9669268719    1.3892305119   -2.2698903988
C         0.0741556603    1.3743426665   -1.4357581522
H         0.3901797928    0.4734727431   -1.9794642818
C         0.7517460851    1.3983753326   -0.1075171303
H         1.8341846057    1.4072254506   -0.1125565761
O         0.5555806387    2.5123782426   -2.1957484200
H         0.2859854838    2.3844946645   -3.1126202631
$end

$rem
BASIS = 6-311++G(2df,2p)
GUI = 2
JOB_TYPE = Frequency
METHOD = wB97M-V
SOLVENT_METHOD = SMD
SCF_ALGORITHM = DIIS_GDM
MAX_SCF_CYCLES = 400
SCF_CONVERGENCE = 7
THRESH = 12
$end
--------------------------------------------------------------

   18    -307.9918752740      8.07e-08  Convergence criterion met
 Total energy in the final basis set =     -307.9871328681
   16    -307.9918752434      7.94e-08  Convergence criterion met
 Total energy in the final basis set =     -307.9871326413
   16    -307.9918748358      8.10e-08  Convergence criterion met
 Total energy in the final basis set =     -307.9871326252
   16    -307.9918752334      7.95e-08  Convergence criterion met
 Total energy in the final basis set =     -307.9871328233
   16    -307.9918752178      7.97e-08  Convergence criterion met
 Total energy in the final basis set =     -307.9871328157
   16    -307.9918750749      8.00e-08  Convergence criterion met
 Total energy in the final basis set =     -307.9871323254
   16    -307.9918744593      8.00e-08  Convergence criterion met
 Total energy in the final basis set =     -307.9871323950
   16    -307.9918748255      8.05e-08  Convergence criterion met
 Total energy in the final basis set =     -307.9871318587
   16    -307.9918737545      7.90e-08  Convergence criterion met
 Total energy in the final basis set =     -307.9871317716
   16    -307.9918752825      8.05e-08  Convergence criterion met
 Total energy in the final basis set =     -307.9871326814
   16    -307.9918750890      7.98e-08  Convergence criterion met
 Total energy in the final basis set =     -307.9871328780
   16    -307.9918755197      8.00e-08  Convergence criterion met
 Total energy in the final basis set =     -307.9871327336
   16    -307.9918748599      7.99e-08  Convergence criterion met
 Total energy in the final basis set =     -307.9871328337
   16    -307.9918733627      7.97e-08  Convergence criterion met
 Total energy in the final basis set =     -307.9871318315
   16    -307.9918754702      8.03e-08  Convergence criterion met
 Total energy in the final basis set =     -307.9871321901

                    Orbital Energies (a.u.)
 --------------------------------------------------------------

 Alpha MOs
 -- Occupied --
-19.3377 -10.3985 -10.3509 -10.3468 -10.3463 -10.3423 -10.3420  -1.1536
 -0.9735  -0.8758  -0.8607  -0.7374  -0.7158  -0.6302  -0.6243  -0.5822
 -0.5641  -0.5248  -0.5185  -0.4900  -0.4649  -0.4523  -0.4246  -0.3965
 -0.3644  -0.2690

 Beta MOs
 -- Occupied --
-19.3361 -10.3992 -10.3449 -10.3446 -10.3432 -10.3415 -10.3409  -1.1500
 -0.9666  -0.8707  -0.8507  -0.7278  -0.7108  -0.6269  -0.6180  -0.5755
 -0.5589  -0.5225  -0.5142  -0.4830  -0.4600  -0.4315  -0.4156  -0.3901
 -0.3470

          Ground-State Mulliken Net Atomic Charges

     Atom                 Charge (a.u.)    Spin (a.u.)
  --------------------------------------------------------
      1 H                     0.291384       0.005418
      2 C                    -0.292074      -0.139231
      3 C                    -0.317923       0.508556
      4 H                     0.287494      -0.010772
      5 C                    -0.317530      -0.139656
      6 H                     0.291580       0.005645
      7 C                    -0.028835       0.353141
      8 H                     0.290601      -0.009553
      9 C                    -0.638315       0.017934
     10 H                     0.174340       0.042965
     11 C                     0.060156       0.353022
     12 H                     0.290555      -0.009322
     13 O                    -0.419368       0.018660
     14 H                     0.327934       0.003192
  --------------------------------------------------------
  Sum of atomic charges =    -0.000000

                    Cartesian Multipole Moments
 -----------------------------------------------------------------
    Charge (ESU x 10^10)
                -0.0000
    Dipole Moment (Debye)
         X      -1.2753      Y      -2.0181      Z      -0.7621
       Tot       2.5060
    Quadrupole Moments (Debye-Ang)
        XX     -39.2191     XY      -3.6443     YY     -54.5484
        XZ       2.1842     YZ       1.8095     ZZ     -31.1104

             Standard Nuclear Orientation (Angstroms)
    I     Atom           X                Y                Z
 ----------------------------------------------------------------
    1      H       0.5975412937     1.4150050574     1.9989805386
    2      C       0.0604941438     1.4039421775     1.0593498098
    3      C      -1.3536991388     1.4015264431     1.0747726911
    4      H      -1.8863848923     1.4130135969     2.0143839163
    5      C      -2.0668689809     1.4014878971    -0.1463162618
    6      H      -3.1491565101     1.4159383602    -0.1251550765
    7      C      -1.4169942096     1.3879164563    -1.3369195954
    8      H      -1.9669268719     1.3892305119    -2.2698903988
    9      C       0.0741556603     1.3743426665    -1.4357581522
   10      H       0.3901797928     0.4734727431    -1.9794642818
   11      C       0.7517460851     1.3983753326    -0.1075171303
   12      H       1.8341846057     1.4072254506    -0.1125565761
   13      O       0.5555806387     2.5123782426    -2.1957484200
   14      H       0.2859854838     2.3844946645    -3.1126202631
 ----------------------------------------------------------------

 Frequency:        94.14                 224.96                 301.04
 Force Cnst:      0.0207                 0.0322                 0.2040
 Red. Mass:       3.9598                 1.0799                 3.8204
 IR Intens:        1.045                217.958                  4.899
 Frequency:       403.20                 445.06                 529.20
 Force Cnst:      0.3039                 0.3412                 0.7299
 Red. Mass:       3.1726                 2.9237                 4.4236
 IR Intens:       20.672                  2.828                  3.710
 Frequency:       577.86                 613.72                 712.58
 Force Cnst:      1.2935                 0.3468                 0.6822
 Red. Mass:       6.5747                 1.5629                 2.2801
 IR Intens:        1.538                 99.544                 72.107
 Frequency:       764.00                 828.89                 886.52
 Force Cnst:      0.4494                 0.7387                 1.1505
 Red. Mass:       1.3068                 1.8248                 2.4846
 IR Intens:        0.549                  1.295                 21.489
 Frequency:       960.55                 993.66                1001.21
 Force Cnst:      3.0202                 1.3860                 0.7677
 Red. Mass:       5.5558                 2.3824                 1.2999
 IR Intens:       90.150                 21.124                  1.005
 Frequency:      1002.97                1020.43                1034.32
 Force Cnst:      0.8580                 2.1617                 1.4348
 Red. Mass:       1.4476                 3.5236                 2.2763
 IR Intens:        4.263                178.893                 27.966
 Frequency:      1101.75                1152.62                1182.56
 Force Cnst:      1.0507                 0.8260                 0.9351
 Red. Mass:       1.4692                 1.0552                 1.1349
 IR Intens:        0.974                  2.179                  6.135
 Frequency:      1194.75                1312.04                1339.83
 Force Cnst:      0.9112                 2.2665                 1.4931
 Red. Mass:       1.0835                 2.2347                 1.4117
 IR Intens:       93.787                  9.098                 11.074
 Frequency:      1369.52                1430.50                1457.80
 Force Cnst:      1.4358                 2.5344                 2.1803
 Red. Mass:       1.2993                 2.1021                 1.7413
 IR Intens:        6.823                 13.876                 29.381
 Frequency:      1560.86                1619.95                2972.88
 Force Cnst:      4.9748                 8.6170                 5.6200
 Red. Mass:       3.4658                 5.5732                 1.0793
 IR Intens:        2.064                  1.232                 39.761
 Frequency:      3178.96                3183.35                3195.37
 Force Cnst:      6.4661                 6.4839                 6.5836
 Red. Mass:       1.0860                 1.0860                 1.0944
 IR Intens:        9.354                  5.053                 22.292
 Frequency:      3199.34                3220.02                3816.48
 Force Cnst:      6.6000                 6.6874                 9.1527
 Red. Mass:       1.0944                 1.0947                 1.0665
 IR Intens:       28.308                 16.114                114.179

 STANDARD THERMODYNAMIC QUANTITIES AT   298.15 K  AND     1.00 ATM

   This Molecule has  0 Imaginary Frequencies
   Zero point vibrational energy:       71.311 kcal/mol

   Atom    1 Element H  Has Mass    1.00783
   Atom    2 Element C  Has Mass   12.00000
   Atom    3 Element C  Has Mass   12.00000
   Atom    4 Element H  Has Mass    1.00783
   Atom    5 Element C  Has Mass   12.00000
   Atom    6 Element H  Has Mass    1.00783
   Atom    7 Element C  Has Mass   12.00000
   Atom    8 Element H  Has Mass    1.00783
   Atom    9 Element C  Has Mass   12.00000
   Atom   10 Element H  Has Mass    1.00783
   Atom   11 Element C  Has Mass   12.00000
   Atom   12 Element H  Has Mass    1.00783
   Atom   13 Element O  Has Mass   15.99491
   Atom   14 Element H  Has Mass    1.00783
   Molecular Mass:    95.049720 amu
   Principal axes and moments of inertia in amu*Bohr^2:
                             1           2           3
    Eigenvalues --      368.90226   678.04448   970.42052
          X              -0.48163     0.86947    -0.10981
          Y              -0.21387     0.00490     0.97685
          Z               0.84988     0.49396     0.18360
   Rotational Symmetry Number is   1
   The Molecule is an Asymmetric Top
   Translational Enthalpy:        0.889 kcal/mol
   Rotational Enthalpy:           0.889 kcal/mol
   Vibrational Enthalpy:         73.484 kcal/mol
   gas constant (RT):             0.592 kcal/mol
   Translational Entropy:        39.567  cal/mol.K
   Rotational Entropy:           26.987  cal/mol.K
   Vibrational Entropy:          11.904  cal/mol.K

   Total Enthalpy:               75.854 kcal/mol
   Total Entropy:                78.457  cal/mol.K
 Total job time:  7484.80s(wall), 108464.37s(cpu)
        *  Thank you very much for using Q-Chem.  Have a nice day.  *
