 Q-Chem 5.4, Q-Chem, Inc., Pleasanton, CA (2021)
 Q-Chem 5.4.1 for Intel X86 EM64T Linux

User input:
--------------------------------------------------------------
$molecule
0 2
H         0.6009466180    1.4151840815    2.0082552824
C         0.0618232587    1.4028963822    1.0643016091
C        -1.3567918956    1.3978212561    1.0800246698
H        -1.8915557204    1.4063400926    2.0239693388
C        -2.0720761747    1.4018846122   -0.1450052933
H        -3.1591513015    1.4181746287   -0.1234118016
C        -1.4183675255    1.3912701396   -1.3401643498
H        -1.9712021039    1.3969257715   -2.2770893221
C         0.0783942807    1.3768414739   -1.4430793967
H         0.3929507102    0.4679941836   -1.9857836669
C         0.7553288389    1.4002209434   -0.1079901347
H         1.8423378529    1.4159245566   -0.1143608736
O         0.5610360788    2.5165465950   -2.1967713710
H         0.2861641837    2.3703248833   -3.1173538907
$end

$rem
BASIS = 6-311++G(2df,2p)
GUI = 2
JOB_TYPE = Optimization
METHOD = wB97M-V
SCF_ALGORITHM = DIIS_GDM
MAX_SCF_CYCLES = 400
GEOM_OPT_MAX_CYCLES = 150
SCF_CONVERGENCE = 7
THRESH = 12
Solvent_method = SMD
$end
--------------------------------------------------------------

   18    -307.9915745061      8.54e-08  Convergence criterion met
 Total energy in the final basis set =     -307.9867868375
   17    -307.9918692808      4.61e-08  Convergence criterion met
 Total energy in the final basis set =     -307.9871283037
   16    -307.9918743203      7.22e-08  Convergence criterion met
 Total energy in the final basis set =     -307.9871321429

             Standard Nuclear Orientation (Angstroms)
    I     Atom           X                Y                Z
 ----------------------------------------------------------------
    1      H       0.5975412937     1.4150050574     1.9989805386
    2      C       0.0604941438     1.4039421775     1.0593498098
    3      C      -1.3536991388     1.4015264431     1.0747726911
    4      H      -1.8863848923     1.4130135969     2.0143839163
    5      C      -2.0668689809     1.4014878971    -0.1463162618
    6      H      -3.1491565101     1.4159383602    -0.1251550765
    7      C      -1.4169942096     1.3879164563    -1.3369195954
    8      H      -1.9669268719     1.3892305119    -2.2698903988
    9      C       0.0741556603     1.3743426665    -1.4357581522
   10      H       0.3901797928     0.4734727431    -1.9794642818
   11      C       0.7517460851     1.3983753326    -0.1075171303
   12      H       1.8341846057     1.4072254506    -0.1125565761
   13      O       0.5555806387     2.5123782426    -2.1957484200
   14      H       0.2859854838     2.3844946645    -3.1126202631
 ----------------------------------------------------------------

   16    -307.9918752744      7.78e-08  Convergence criterion met
 Total energy in the final basis set =     -307.9871328685
 Final energy is   -307.987132868530
 **  OPTIMIZATION CONVERGED  **

                    Orbital Energies (a.u.)
 --------------------------------------------------------------

 Alpha MOs
 -- Occupied --
-19.3377 -10.3985 -10.3509 -10.3468 -10.3463 -10.3423 -10.3420  -1.1538
 -0.9735  -0.8758  -0.8607  -0.7374  -0.7158  -0.6302  -0.6244  -0.5822
 -0.5641  -0.5248  -0.5185  -0.4901  -0.4649  -0.4524  -0.4246  -0.3965
 -0.3645  -0.2690

 Beta MOs
 -- Occupied --
-19.3361 -10.3992 -10.3449 -10.3446 -10.3432 -10.3415 -10.3409  -1.1502
 -0.9666  -0.8707  -0.8507  -0.7278  -0.7108  -0.6269  -0.6181  -0.5755
 -0.5590  -0.5225  -0.5143  -0.4830  -0.4600  -0.4315  -0.4156  -0.3901
 -0.3470

          Ground-State Mulliken Net Atomic Charges

     Atom                 Charge (a.u.)    Spin (a.u.)
  --------------------------------------------------------
      1 H                     0.291383       0.005418
      2 C                    -0.292127      -0.139229
      3 C                    -0.317857       0.508562
      4 H                     0.287495      -0.010772
      5 C                    -0.317552      -0.139658
      6 H                     0.291579       0.005645
      7 C                    -0.028836       0.353139
      8 H                     0.290605      -0.009553
      9 C                    -0.638325       0.017941
     10 H                     0.174343       0.042957
     11 C                     0.060150       0.353031
     12 H                     0.290554      -0.009322
     13 O                    -0.419099       0.018660
     14 H                     0.327687       0.003182
  --------------------------------------------------------
  Sum of atomic charges =     0.000000

                    Cartesian Multipole Moments
 -----------------------------------------------------------------
    Charge (ESU x 10^10)
                 0.0000
    Dipole Moment (Debye)
         X      -1.2755      Y      -2.0182      Z      -0.7605
       Tot       2.5057
    Quadrupole Moments (Debye-Ang)
        XX     -39.2177     XY      -3.6448     YY     -54.5475
        XZ       2.1849     YZ       1.8135     ZZ     -31.1200

 Total job time:  543.64s(wall), 4218.68s(cpu)
        *  Thank you very much for using Q-Chem.  Have a nice day.  *
