 Q-Chem 5.4, Q-Chem, Inc., Pleasanton, CA (2021)
 Q-Chem 5.4.1 for Intel X86 EM64T Linux

User input:
--------------------------------------------------------------
$molecule
0 1
H         0.5576789192    1.2214781769    2.1470982677
C         0.0265668362    1.2931770227    1.2073316332
C        -1.3615499561    1.3505925728    1.1958671042
H        -1.9120584297    1.3231651174    2.1267705198
C        -2.0430240623    1.4429401725   -0.0114702534
H        -3.1241177537    1.4871082885   -0.0203668822
C        -1.3364401429    1.4781713414   -1.2073485011
H        -1.8675530943    1.5498703168   -2.1471146306
C         0.0516759967    1.4207560137   -1.1958839527
H         0.6021851666    1.4481832658   -2.1267869667
C         0.7331504097    1.3284082763    0.0114539585
H         1.8142441109    1.2842402350    0.0203497032
$end

$rem
BASIS = 6-311++G(2df,2p)
GUI = 2
JOB_TYPE = Frequency
METHOD = wB97M-V
SOLVENT_METHOD = SMD
SCF_ALGORITHM = DIIS_GDM
MAX_SCF_CYCLES = 400
SCF_CONVERGENCE = 7
THRESH = 12
$end
--------------------------------------------------------------

   10    -232.2178858014      2.51e-08  Convergence criterion met
 Total energy in the final basis set =     -232.2136271218
    9    -232.2178857537      2.81e-08  Convergence criterion met
 Total energy in the final basis set =     -232.2136268810
    9    -232.2178853857      6.35e-08  Convergence criterion met
 Total energy in the final basis set =     -232.2136268982
    9    -232.2178857172      2.23e-08  Convergence criterion met
 Total energy in the final basis set =     -232.2136270633
    9    -232.2178857847      2.10e-08  Convergence criterion met
 Total energy in the final basis set =     -232.2136270788
    9    -232.2178856419      3.87e-08  Convergence criterion met
 Total energy in the final basis set =     -232.2136266204
    9    -232.2178849431      7.97e-08  Convergence criterion met
 Total energy in the final basis set =     -232.2136266032
   10    -232.2178850325      9.43e-08  Convergence criterion met
 Total energy in the final basis set =     -232.2136259418
   11    -232.2178845988      1.81e-08  Convergence criterion met
 Total energy in the final basis set =     -232.2136259249
   11    -232.2178855570      1.32e-08  Convergence criterion met
 Total energy in the final basis set =     -232.2136264835
   10    -232.2178847655      2.08e-08  Convergence criterion met
 Total energy in the final basis set =     -232.2136264770
    9    -232.2178856980      7.35e-08  Convergence criterion met
 Total energy in the final basis set =     -232.2136270342
    9    -232.2178858076      2.33e-08  Convergence criterion met
 Total energy in the final basis set =     -232.2136271117
    9    -232.2178857202      2.80e-08  Convergence criterion met
 Total energy in the final basis set =     -232.2136270371
    9    -232.2178856805      3.18e-08  Convergence criterion met
 Total energy in the final basis set =     -232.2136270039

                    Orbital Energies (a.u.)
 --------------------------------------------------------------

 Alpha MOs
 -- Occupied --
-10.3423 -10.3421 -10.3421 -10.3416 -10.3416 -10.3413  -0.9826  -0.8678
 -0.8678  -0.7151  -0.7150  -0.6331  -0.5605  -0.5513  -0.5202  -0.5201
 -0.4839  -0.4360  -0.4360  -0.3459  -0.3459

          Ground-State Mulliken Net Atomic Charges

     Atom                 Charge (a.u.)
  ----------------------------------------
      1 H                     0.268551
      2 C                    -0.268094
      3 C                    -0.267927
      4 H                     0.268564
      5 C                    -0.269680
      6 H                     0.268215
      7 C                    -0.267725
      8 H                     0.268554
      9 C                    -0.267560
     10 H                     0.268567
     11 C                    -0.269680
     12 H                     0.268217
  ----------------------------------------
  Sum of atomic charges =     0.000000

                    Cartesian Multipole Moments
 -----------------------------------------------------------------
    Charge (ESU x 10^10)
                 0.0000
    Dipole Moment (Debye)
         X       0.0000      Y      -0.0000      Z      -0.0005
       Tot       0.0005
    Quadrupole Moments (Debye-Ang)
        XX     -31.1632     XY      -0.3880     YY     -40.7695
        XZ      -0.0221     YZ      -0.5092     ZZ     -31.1725

             Standard Nuclear Orientation (Angstroms)
    I     Atom           X                Y                Z
 ----------------------------------------------------------------
    1      H       0.5576789192     1.2214781769     2.1470982677
    2      C       0.0265668362     1.2931770227     1.2073316332
    3      C      -1.3615499561     1.3505925728     1.1958671042
    4      H      -1.9120584297     1.3231651174     2.1267705198
    5      C      -2.0430240623     1.4429401725    -0.0114702534
    6      H      -3.1241177537     1.4871082885    -0.0203668822
    7      C      -1.3364401429     1.4781713414    -1.2073485011
    8      H      -1.8675530943     1.5498703168    -2.1471146306
    9      C       0.0516759967     1.4207560137    -1.1958839527
   10      H       0.6021851666     1.4481832658    -2.1267869667
   11      C       0.7331504097     1.3284082763     0.0114539585
   12      H       1.8142441109     1.2842402350     0.0203497032
 ----------------------------------------------------------------

 Frequency:       412.42                 413.87                 614.28
 Force Cnst:      0.2838                 0.2851                 1.3451
 Red. Mass:       2.8320                 2.8245                 6.0502
 IR Intens:        0.001                  0.006                  0.000
 Frequency:       614.32                 697.43                 729.46
 Force Cnst:      1.3453                 0.3109                 1.0326
 Red. Mass:       6.0504                 1.0848                 3.2937
 IR Intens:        0.000                230.357                  0.000
 Frequency:       885.56                 887.90                1016.81
 Force Cnst:      0.5766                 0.5796                 3.9482
 Red. Mass:       1.2478                 1.2477                 6.4814
 IR Intens:        0.000                  0.000                  0.000
 Frequency:      1021.07                1022.10                1025.53
 Force Cnst:      0.8514                 0.8524                 3.7221
 Red. Mass:       1.3861                 1.3848                 6.0067
 IR Intens:        0.001                  0.004                  0.000
 Frequency:      1046.75                1063.76                1063.91
 Force Cnst:      0.8363                 1.0896                 1.0937
 Red. Mass:       1.2954                 1.6343                 1.6400
 IR Intens:        0.000                 19.500                 19.457
 Frequency:      1148.97                1182.72                1183.18
 Force Cnst:      0.8735                 0.9198                 0.9210
 Red. Mass:       1.1230                 1.1160                 1.1167
 IR Intens:        0.002                  0.000                  0.000
 Frequency:      1311.69                1374.85                1514.91
 Force Cnst:      5.4764                 1.3896                 2.8584
 Red. Mass:       5.4023                 1.2478                 2.1140
 IR Intens:        0.002                  0.000                 13.591
 Frequency:      1515.25                1661.78                1661.93
 Force Cnst:      2.8473                 9.4941                 9.5045
 Red. Mass:       2.1048                 5.8352                 5.8406
 IR Intens:       13.912                  0.000                  0.000
 Frequency:      3182.25                3189.94                3190.79
 Force Cnst:      6.4733                 6.5254                 6.5287
 Red. Mass:       1.0849                 1.0884                 1.0884
 IR Intens:        0.036                  0.000                  0.000
 Frequency:      3203.96                3204.89                3214.26
 Force Cnst:      6.6280                 6.6322                 6.6957
 Red. Mass:       1.0959                 1.0959                 1.1000
 IR Intens:       50.782                 50.565                  0.000

 STANDARD THERMODYNAMIC QUANTITIES AT   298.15 K  AND     1.00 ATM

   This Molecule has  0 Imaginary Frequencies
   Zero point vibrational energy:       63.268 kcal/mol

   Atom    1 Element H  Has Mass    1.00783
   Atom    2 Element C  Has Mass   12.00000
   Atom    3 Element C  Has Mass   12.00000
   Atom    4 Element H  Has Mass    1.00783
   Atom    5 Element C  Has Mass   12.00000
   Atom    6 Element H  Has Mass    1.00783
   Atom    7 Element C  Has Mass   12.00000
   Atom    8 Element H  Has Mass    1.00783
   Atom    9 Element C  Has Mass   12.00000
   Atom   10 Element H  Has Mass    1.00783
   Atom   11 Element C  Has Mass   12.00000
   Atom   12 Element H  Has Mass    1.00783
   Molecular Mass:    78.046980 amu
   Principal axes and moments of inertia in amu*Bohr^2:
                             1           2           3
    Eigenvalues --      314.10096   314.15065   628.25161
          X               0.00803     0.99914     0.04072
          Y              -0.05375    -0.04023     0.99774
          Z               0.99852    -0.01020     0.05338
   Rotational Symmetry Number is   1
   The Molecule is an Asymmetric Top
   Translational Enthalpy:        0.889 kcal/mol
   Rotational Enthalpy:           0.889 kcal/mol
   Vibrational Enthalpy:         64.234 kcal/mol
   gas constant (RT):             0.592 kcal/mol
   Translational Entropy:        38.979  cal/mol.K
   Rotational Entropy:           25.630  cal/mol.K
   Vibrational Entropy:           4.344  cal/mol.K

   Total Enthalpy:               66.604 kcal/mol
   Total Entropy:                68.953  cal/mol.K
 Total job time:  2915.12s(wall), 42013.97s(cpu)
        *  Thank you very much for using Q-Chem.  Have a nice day.  *
