 Q-Chem 5.4, Q-Chem, Inc., Pleasanton, CA (2021)
 Q-Chem 5.4.1 for Intel X86 EM64T Linux

User input:
--------------------------------------------------------------
$molecule
0 1
H         0.5622971105    1.2207356888    2.1557448370
C         0.0290771844    1.2928624419    1.2116816592
C        -1.3641279002    1.3504828357    1.2001806814
H        -1.9168765799    1.3229750949    2.1353285654
C        -2.0481735824    1.4431197283   -0.0115041846
H        -3.1340516081    1.4874540102   -0.0204437369
C        -1.3389492678    1.4784860695   -1.2116992223
H        -1.8721729218    1.5506131767   -2.1557601811
C         0.0542533770    1.4208655831   -1.2001979010
H         0.6070036092    1.4483725150   -2.1353449808
C         0.7383002735    1.3282287058    0.0114888652
H         1.8241783058    1.2838949500    0.0204255984
$end

$rem
BASIS = 6-311++G(2df,2p)
GUI = 2
JOB_TYPE = Optimization
METHOD = wB97M-V
SCF_ALGORITHM = DIIS_GDM
MAX_SCF_CYCLES = 400
GEOM_OPT_MAX_CYCLES = 150
SCF_CONVERGENCE = 7
THRESH = 12
Solvent_method = SMD
$end
--------------------------------------------------------------

   10    -232.2177035791      2.33e-08  Convergence criterion met
 Total energy in the final basis set =     -232.2133912486
    9    -232.2178778321      1.14e-08  Convergence criterion met
 Total energy in the final basis set =     -232.2136248132

             Standard Nuclear Orientation (Angstroms)
    I     Atom           X                Y                Z
 ----------------------------------------------------------------
    1      H       0.5576789192     1.2214781769     2.1470982677
    2      C       0.0265668362     1.2931770227     1.2073316332
    3      C      -1.3615499561     1.3505925728     1.1958671042
    4      H      -1.9120584297     1.3231651174     2.1267705198
    5      C      -2.0430240623     1.4429401725    -0.0114702534
    6      H      -3.1241177537     1.4871082885    -0.0203668822
    7      C      -1.3364401429     1.4781713414    -1.2073485011
    8      H      -1.8675530943     1.5498703168    -2.1471146306
    9      C       0.0516759967     1.4207560137    -1.1958839527
   10      H       0.6021851666     1.4481832658    -2.1267869667
   11      C       0.7331504097     1.3284082763     0.0114539585
   12      H       1.8142441109     1.2842402350     0.0203497032
 ----------------------------------------------------------------

    9    -232.2178858016      8.86e-09  Convergence criterion met
 Total energy in the final basis set =     -232.2136271220
 Final energy is   -232.213627121958
 **  OPTIMIZATION CONVERGED  **

                    Orbital Energies (a.u.)
 --------------------------------------------------------------

 Alpha MOs
 -- Occupied --
-10.3423 -10.3421 -10.3421 -10.3416 -10.3416 -10.3413  -0.9826  -0.8678
 -0.8678  -0.7151  -0.7150  -0.6331  -0.5605  -0.5513  -0.5202  -0.5201
 -0.4839  -0.4360  -0.4360  -0.3459  -0.3459

          Ground-State Mulliken Net Atomic Charges

     Atom                 Charge (a.u.)
  ----------------------------------------
      1 H                     0.268561
      2 C                    -0.267710
      3 C                    -0.267945
      4 H                     0.268557
      5 C                    -0.269679
      6 H                     0.268215
      7 C                    -0.267710
      8 H                     0.268561
      9 C                    -0.267945
     10 H                     0.268557
     11 C                    -0.269679
     12 H                     0.268215
  ----------------------------------------
  Sum of atomic charges =     0.000000

                    Cartesian Multipole Moments
 -----------------------------------------------------------------
    Charge (ESU x 10^10)
                 0.0000
    Dipole Moment (Debye)
         X      -0.0000      Y      -0.0000      Z      -0.0000
       Tot       0.0000
    Quadrupole Moments (Debye-Ang)
        XX     -31.1633     XY      -0.3880     YY     -40.7694
        XZ      -0.0197     YZ      -0.5086     ZZ     -31.1724

 Total job time:  204.72s(wall), 1439.60s(cpu)
        *  Thank you very much for using Q-Chem.  Have a nice day.  *
