 Q-Chem 5.4, Q-Chem, Inc., Pleasanton, CA (2021)
 Q-Chem 5.4.1 for Intel X86 EM64T Linux

User input:
--------------------------------------------------------------
$molecule
0 2
C         2.7113354948   -0.3862062290   -0.3546185345
O         1.7838797532    0.3927828743   -1.0487036198
C         3.1052475793    0.3976053238    0.9139173844
O         2.0433512278    0.4272322065    1.8202252471
C         3.5304614905    1.8317725050    0.6575277374
C         4.7311709083    1.9505904522   -0.2697666860
O         4.2624988793    2.5573210842   -1.5069562394
O         4.9157688903    2.1312853702   -2.5504925918
C         5.8324622436    2.8280813043    0.3206188150
O         6.3497092496    2.0730386444    1.3960627531
O         6.8286701333    3.1539079313   -0.6089735043
H         5.3446360651    0.7987337163    2.3266607583
H         1.6586689065    0.0021591403   -1.9214830455
H         3.7479772215    2.2942108031    1.6188232050
H         2.6905053614    2.3742628508    0.2292530491
H         5.1689594380    0.9906775910   -0.5428761855
H         5.4272491992    3.7762586244    0.6725800577
H         6.8138741079    2.6670202406    1.9977651686
H         7.1715885512    2.3394482766   -1.0007736557
O         2.0858255987   -1.5976441946    0.0197631223
O         4.1915239031   -0.3895818236    1.4131032373
O         4.6675783738    0.1642150891    2.6373202916
H         1.6425055136   -0.4547198897    1.8212866828
H         3.5921397132   -0.5982132448   -0.9620916838
H         2.7620516963   -2.2779226466    0.1196135362
$end

$rem
BASIS = 6-311++G(2df,2p)
GUI = 2
JOB_TYPE = Frequency
METHOD = wB97M-V
SOLVENT_METHOD = SMD
SCF_ALGORITHM = DIIS_GDM
MAX_SCF_CYCLES = 400
SCF_CONVERGENCE = 7
THRESH = 12
$end
--------------------------------------------------------------

   21    -874.0444575092      5.85e-08  Convergence criterion met
 Total energy in the final basis set =     -874.0383190085
   20    -874.0444513160      6.26e-08  Convergence criterion met
 Total energy in the final basis set =     -874.0383177858
   20    -874.0444615040      6.26e-08  Convergence criterion met
 Total energy in the final basis set =     -874.0383178905
   20    -874.0444590161      6.27e-08  Convergence criterion met
 Total energy in the final basis set =     -874.0383180339
   20    -874.0444543992      6.26e-08  Convergence criterion met
 Total energy in the final basis set =     -874.0383180901
   20    -874.0444529566      6.27e-08  Convergence criterion met
 Total energy in the final basis set =     -874.0383180127
   20    -874.0444601092      6.25e-08  Convergence criterion met
 Total energy in the final basis set =     -874.0383179850
   20    -874.0444616672      6.27e-08  Convergence criterion met
 Total energy in the final basis set =     -874.0383187442
   20    -874.0444569853      6.27e-08  Convergence criterion met
 Total energy in the final basis set =     -874.0383187420
   20    -874.0444570953      6.26e-08  Convergence criterion met
 Total energy in the final basis set =     -874.0383185431
   20    -874.0444569437      6.26e-08  Convergence criterion met
 Total energy in the final basis set =     -874.0383184941
   20    -874.0444559909      6.26e-08  Convergence criterion met
 Total energy in the final basis set =     -874.0383184584
   20    -874.0444579787      6.27e-08  Convergence criterion met
 Total energy in the final basis set =     -874.0383185102
   20    -874.0444574617      6.26e-08  Convergence criterion met
 Total energy in the final basis set =     -874.0383189188
   20    -874.0444575189      6.26e-08  Convergence criterion met
 Total energy in the final basis set =     -874.0383190600

                    Orbital Energies (a.u.)
 --------------------------------------------------------------

 Alpha MOs
 -- Occupied --
-19.4672 -19.4189 -19.4039 -19.3898 -19.3602 -19.3533 -19.3517 -19.3516
-19.3513 -10.4626 -10.4584 -10.4556 -10.4169 -10.3529  -1.3475  -1.2775
 -1.2152  -1.2127  -1.1741  -1.1456  -1.1432  -1.0453  -1.0299  -0.9115
 -0.8535  -0.8113  -0.7599  -0.7194  -0.6913  -0.6869  -0.6660  -0.6562
 -0.6462  -0.6411  -0.6165  -0.6102  -0.6008  -0.5906  -0.5764  -0.5501
 -0.5460  -0.5274  -0.5246  -0.5018  -0.4884  -0.4785  -0.4643  -0.4582
 -0.4482  -0.4456  -0.4261  -0.4235  -0.4104  -0.4069  -0.4038  -0.3944
 -0.3858

 Beta MOs
 -- Occupied --
-19.4568 -19.4039 -19.4002 -19.3898 -19.3601 -19.3533 -19.3517 -19.3516
-19.3513 -10.4626 -10.4580 -10.4556 -10.4173 -10.3528  -1.3214  -1.2775
 -1.2152  -1.2123  -1.1741  -1.1454  -1.1432  -1.0445  -1.0046  -0.9017
 -0.8489  -0.8108  -0.7561  -0.7188  -0.6869  -0.6845  -0.6624  -0.6558
 -0.6364  -0.6268  -0.6102  -0.6052  -0.5886  -0.5820  -0.5663  -0.5490
 -0.5318  -0.5252  -0.5122  -0.4960  -0.4861  -0.4778  -0.4637  -0.4544
 -0.4474  -0.4377  -0.4258  -0.4180  -0.4079  -0.4034  -0.3941  -0.3865

          Ground-State Mulliken Net Atomic Charges

     Atom                 Charge (a.u.)    Spin (a.u.)
  --------------------------------------------------------
      1 C                     0.039033      -0.000914
      2 O                    -0.406242      -0.000240
      3 C                    -0.122904       0.000592
      4 O                    -0.423450      -0.000126
      5 C                    -0.519321      -0.004187
      6 C                    -0.124727       0.010644
      7 O                     0.126779       0.312268
      8 O                    -0.237012       0.667136
      9 C                    -0.344139       0.011506
     10 O                    -0.421867       0.001459
     11 O                    -0.442791      -0.000921
     12 H                     0.411964       0.000094
     13 H                     0.342768       0.000123
     14 H                     0.322961       0.000211
     15 H                     0.305877       0.000275
     16 H                     0.395146       0.001521
     17 H                     0.319472      -0.000723
     18 H                     0.357219       0.000476
     19 H                     0.348284       0.000553
     20 O                    -0.467450       0.000020
     21 O                    -0.138128       0.000338
     22 O                    -0.348944      -0.000020
     23 H                     0.350789       0.000117
     24 H                     0.332714      -0.000101
     25 H                     0.343966      -0.000103
  --------------------------------------------------------
  Sum of atomic charges =     0.000000

                    Cartesian Multipole Moments
 -----------------------------------------------------------------
    Charge (ESU x 10^10)
                 0.0000
    Dipole Moment (Debye)
         X       3.4142      Y      -0.9400      Z      -0.1734
       Tot       3.5455
    Quadrupole Moments (Debye-Ang)
        XX     -58.0733     XY       2.0484     YY     -78.6398
        XZ      10.0055     YZ      18.0212     ZZ     -91.0603

             Standard Nuclear Orientation (Angstroms)
    I     Atom           X                Y                Z
 ----------------------------------------------------------------
    1      C       2.7113354948    -0.3862062290    -0.3546185345
    2      O       1.7838797532     0.3927828743    -1.0487036198
    3      C       3.1052475793     0.3976053238     0.9139173844
    4      O       2.0433512278     0.4272322065     1.8202252471
    5      C       3.5304614905     1.8317725050     0.6575277374
    6      C       4.7311709083     1.9505904522    -0.2697666860
    7      O       4.2624988793     2.5573210842    -1.5069562394
    8      O       4.9157688903     2.1312853702    -2.5504925918
    9      C       5.8324622436     2.8280813043     0.3206188150
   10      O       6.3497092496     2.0730386444     1.3960627531
   11      O       6.8286701333     3.1539079313    -0.6089735043
   12      H       5.3446360651     0.7987337163     2.3266607583
   13      H       1.6586689065     0.0021591403    -1.9214830455
   14      H       3.7479772215     2.2942108031     1.6188232050
   15      H       2.6905053614     2.3742628508     0.2292530491
   16      H       5.1689594380     0.9906775910    -0.5428761855
   17      H       5.4272491992     3.7762586244     0.6725800577
   18      H       6.8138741079     2.6670202406     1.9977651686
   19      H       7.1715885512     2.3394482766    -1.0007736557
   20      O       2.0858255987    -1.5976441946     0.0197631223
   21      O       4.1915239031    -0.3895818236     1.4131032373
   22      O       4.6675783738     0.1642150891     2.6373202916
   23      H       1.6425055136    -0.4547198897     1.8212866828
   24      H       3.5921397132    -0.5982132448    -0.9620916838
   25      H       2.7620516963    -2.2779226466     0.1196135362
 ----------------------------------------------------------------

 Frequency:        30.87                  56.04                  66.48
 Force Cnst:      0.0039                 0.0162                 0.0171
 Red. Mass:       6.9799                 8.7797                 6.5691
 IR Intens:       10.216                  0.826                 12.273
 Frequency:        82.42                 107.99                 149.71
 Force Cnst:      0.0238                 0.0545                 0.0772
 Red. Mass:       5.9521                 7.9337                 5.8488
 IR Intens:        4.358                  1.133                 11.913
 Frequency:       172.60                 178.28                 202.05
 Force Cnst:      0.0271                 0.0547                 0.1283
 Red. Mass:       1.5429                 2.9193                 5.3331
 IR Intens:       95.413                 54.199                  4.176
 Frequency:       208.50                 253.53                 280.58
 Force Cnst:      0.1403                 0.2946                 0.0750
 Red. Mass:       5.4758                 7.7797                 1.6159
 IR Intens:       10.669                  3.592                 33.513
 Frequency:       285.58                 293.31                 328.33
 Force Cnst:      0.0583                 0.1288                 0.2174
 Red. Mass:       1.2127                 2.5412                 3.4230
 IR Intens:      292.004                103.618                 34.137
 Frequency:       336.56                 365.26                 369.98
 Force Cnst:      0.1712                 0.1793                 0.2226
 Red. Mass:       2.5651                 2.2806                 2.7605
 IR Intens:       34.427                 93.353                 93.476
 Frequency:       397.80                 426.28                 435.68
 Force Cnst:      0.3530                 0.2745                 0.1529
 Red. Mass:       3.7862                 2.5635                 1.3669
 IR Intens:        7.025                 46.026                186.056
 Frequency:       458.00                 492.76                 568.50
 Force Cnst:      0.4873                 0.5825                 0.7230
 Red. Mass:       3.9429                 4.0720                 3.7967
 IR Intens:        5.746                111.161                 97.090
 Frequency:       589.88                 600.37                 626.21
 Force Cnst:      0.3017                 0.9593                 0.7246
 Red. Mass:       1.4717                 4.5172                 3.1360
 IR Intens:       82.166                 66.069                157.778
 Frequency:       630.19                 717.31                 821.27
 Force Cnst:      0.8815                 1.2523                 1.0166
 Red. Mass:       3.7673                 4.1308                 2.5581
 IR Intens:       52.763                 24.894                 22.935
 Frequency:       851.74                 950.95                1006.84
 Force Cnst:      1.8310                 2.2259                 1.7005
 Red. Mass:       4.2838                 4.1777                 2.8472
 IR Intens:       47.535                 57.374                 82.053
 Frequency:      1029.95                1085.44                1102.48
 Force Cnst:      4.4112                 2.3790                 1.8216
 Red. Mass:       7.0580                 3.4272                 2.5437
 IR Intens:       23.715                197.086                 81.957
 Frequency:      1106.16                1128.03                1149.66
 Force Cnst:      1.4883                 1.7893                 2.7169
 Red. Mass:       2.0645                 2.3866                 3.4889
 IR Intens:       81.697                198.868                201.492
 Frequency:      1190.47                1200.79                1212.01
 Force Cnst:      1.2047                 1.3618                 2.4248
 Red. Mass:       1.4428                 1.6030                 2.8016
 IR Intens:      126.434                 56.426                269.666
 Frequency:      1237.99                1260.46                1267.77
 Force Cnst:      1.4740                 1.2343                 1.5877
 Red. Mass:       1.6323                 1.3186                 1.6767
 IR Intens:       85.278                 48.644                212.441
 Frequency:      1278.82                1289.52                1293.09
 Force Cnst:      4.6680                 2.1797                 1.8234
 Red. Mass:       4.8446                 2.2248                 1.8509
 IR Intens:       17.516                112.465                 43.337
 Frequency:      1333.59                1359.61                1377.55
 Force Cnst:      1.5072                 1.5677                 1.7426
 Red. Mass:       1.4384                 1.4394                 1.5586
 IR Intens:        9.991                149.690                 44.051
 Frequency:      1408.36                1420.88                1434.90
 Force Cnst:      1.8144                 1.5481                 1.9012
 Red. Mass:       1.5526                 1.3015                 1.5672
 IR Intens:       35.602                 30.947                 53.986
 Frequency:      1457.16                1461.26                1474.52
 Force Cnst:      1.3906                 1.9468                 2.3387
 Red. Mass:       1.1115                 1.5475                 1.8256
 IR Intens:       18.290                 73.475                 10.666
 Frequency:      1507.29                3087.80                3101.55
 Force Cnst:      1.4628                 6.1081                 6.1131
 Red. Mass:       1.0928                 1.0873                 1.0786
 IR Intens:       88.420                 38.322                  8.118
 Frequency:      3104.38                3115.56                3147.66
 Force Cnst:      6.0785                 6.2165                 6.4333
 Red. Mass:       1.0705                 1.0870                 1.1021
 IR Intens:        0.890                 34.955                  1.167
 Frequency:      3543.45                3743.49                3784.68
 Force Cnst:      7.9172                 8.7951                 8.9973
 Red. Mass:       1.0702                 1.0652                 1.0661
 IR Intens:      716.158                176.426                119.877
 Frequency:      3816.95                3820.37                3824.35
 Force Cnst:      9.1560                 9.1705                 9.1910
 Red. Mass:       1.0666                 1.0664                 1.0666
 IR Intens:      173.352                160.548                154.488

 STANDARD THERMODYNAMIC QUANTITIES AT   298.15 K  AND     1.00 ATM

   This Molecule has  0 Imaginary Frequencies
   Zero point vibrational energy:      119.369 kcal/mol

   Atom    1 Element C  Has Mass   12.00000
   Atom    2 Element O  Has Mass   15.99491
   Atom    3 Element C  Has Mass   12.00000
   Atom    4 Element O  Has Mass   15.99491
   Atom    5 Element C  Has Mass   12.00000
   Atom    6 Element C  Has Mass   12.00000
   Atom    7 Element O  Has Mass   15.99491
   Atom    8 Element O  Has Mass   15.99491
   Atom    9 Element C  Has Mass   12.00000
   Atom   10 Element O  Has Mass   15.99491
   Atom   11 Element O  Has Mass   15.99491
   Atom   12 Element H  Has Mass    1.00783
   Atom   13 Element H  Has Mass    1.00783
   Atom   14 Element H  Has Mass    1.00783
   Atom   15 Element H  Has Mass    1.00783
   Atom   16 Element H  Has Mass    1.00783
   Atom   17 Element H  Has Mass    1.00783
   Atom   18 Element H  Has Mass    1.00783
   Atom   19 Element H  Has Mass    1.00783
   Atom   20 Element O  Has Mass   15.99491
   Atom   21 Element O  Has Mass   15.99491
   Atom   22 Element O  Has Mass   15.99491
   Atom   23 Element H  Has Mass    1.00783
   Atom   24 Element H  Has Mass    1.00783
   Atom   25 Element H  Has Mass    1.00783
   Molecular Mass:   215.040320 amu
   Principal axes and moments of inertia in amu*Bohr^2:
                             1           2           3
    Eigenvalues --     1889.21321  3466.46118  4681.90067
          X               0.72574     0.36722    -0.58177
          Y               0.65242    -0.09905     0.75136
          Z              -0.21829     0.92484     0.31147
   Rotational Symmetry Number is   1
   The Molecule is an Asymmetric Top
   Translational Enthalpy:        0.889 kcal/mol
   Rotational Enthalpy:           0.889 kcal/mol
   Vibrational Enthalpy:        127.526 kcal/mol
   gas constant (RT):             0.592 kcal/mol
   Translational Entropy:        42.000  cal/mol.K
   Rotational Entropy:           31.794  cal/mol.K
   Vibrational Entropy:          52.289  cal/mol.K

   Total Enthalpy:              129.896 kcal/mol
   Total Entropy:               126.084  cal/mol.K
 Total job time:  78404.50s(wall), 1090278.30s(cpu)
        *  Thank you very much for using Q-Chem.  Have a nice day.  *
