 Q-Chem 5.4, Q-Chem, Inc., Pleasanton, CA (2021)
 Q-Chem 5.4.1 for Intel X86 EM64T Linux

User input:
--------------------------------------------------------------
$molecule
0 2
C         2.7064859367   -0.3971484771   -0.3595752768
O         1.8047174567    0.4009983946   -1.0661511421
C         3.1110067550    0.3891610057    0.9063393986
O         2.0508812892    0.3959425261    1.8159268167
C         3.5226046138    1.8305616773    0.6563322905
C         4.7269260531    1.9537792497   -0.2705547885
O         4.2523820389    2.5580330455   -1.5084054329
O         5.0080532754    2.2300508606   -2.5292921602
C         5.8326650325    2.8284347941    0.3236728031
O         6.3617769252    2.0475925109    1.3796376928
O         6.8163713726    3.1831361623   -0.6079195040
H         5.3661422305    0.8045398372    2.2945419956
H         1.6410077403   -0.0381429722   -1.9177122719
H         3.7365931416    2.2908322865    1.6251740018
H         2.6760671502    2.3705534947    0.2252069577
H         5.1647196504    0.9890302467   -0.5443081207
H         5.4234585514    3.7708643930    0.6992004271
H         6.8402864306    2.6402435264    1.9835126469
H         7.1555131792    2.3625199586   -1.0080221330
O         2.0344155940   -1.5808443365    0.0365530649
O         4.2147819736   -0.3882995251    1.3912197168
O         4.6773922414    0.1799123929    2.6249087022
H         1.6383911909   -0.4872800096    1.7304795164
H         3.5870503359   -0.6506102531   -0.9616059007
H         2.7099493406   -2.2375447890    0.2786259993
$end

$rem
BASIS = 6-311++G(2df,2p)
GUI = 2
JOB_TYPE = Optimization
METHOD = wB97M-V
SCF_ALGORITHM = DIIS_GDM
MAX_SCF_CYCLES = 400
GEOM_OPT_MAX_CYCLES = 150
SCF_CONVERGENCE = 7
THRESH = 12
Solvent_method = SMD
$end
--------------------------------------------------------------

   21    -874.0431815231      7.55e-08  Convergence criterion met
 Total energy in the final basis set =     -874.0371355315
   20    -874.0438560428      5.42e-08  Convergence criterion met
 Total energy in the final basis set =     -874.0377194182
   20    -874.0425187884      4.71e-08  Convergence criterion met
 Total energy in the final basis set =     -874.0363295724
   20    -874.0442817065      5.14e-08  Convergence criterion met
 Total energy in the final basis set =     -874.0381276381
   20    -874.0424289649      6.66e-08  Convergence criterion met
 Total energy in the final basis set =     -874.0364288075
   19    -874.0442939688      6.57e-08  Convergence criterion met
 Total energy in the final basis set =     -874.0381442272
   18    -874.0438904190      8.82e-08  Convergence criterion met
 Total energy in the final basis set =     -874.0377718892
   20    -874.0444269891      6.50e-08  Convergence criterion met
 Total energy in the final basis set =     -874.0382953586
   19    -874.0444363467      9.73e-08  Convergence criterion met
 Total energy in the final basis set =     -874.0383055289
   20    -874.0444426669      4.63e-08  Convergence criterion met
 Total energy in the final basis set =     -874.0383116124
   20    -874.0444503180      6.05e-08  Convergence criterion met
 Total energy in the final basis set =     -874.0383170182
   20    -874.0444544376      6.41e-08  Convergence criterion met
 Total energy in the final basis set =     -874.0383183487

             Standard Nuclear Orientation (Angstroms)
    I     Atom           X                Y                Z
 ----------------------------------------------------------------
    1      C       2.7113354948    -0.3862062290    -0.3546185345
    2      O       1.7838797532     0.3927828743    -1.0487036198
    3      C       3.1052475793     0.3976053238     0.9139173844
    4      O       2.0433512278     0.4272322065     1.8202252471
    5      C       3.5304614905     1.8317725050     0.6575277374
    6      C       4.7311709083     1.9505904522    -0.2697666860
    7      O       4.2624988793     2.5573210842    -1.5069562394
    8      O       4.9157688903     2.1312853702    -2.5504925918
    9      C       5.8324622436     2.8280813043     0.3206188150
   10      O       6.3497092496     2.0730386444     1.3960627531
   11      O       6.8286701333     3.1539079313    -0.6089735043
   12      H       5.3446360651     0.7987337163     2.3266607583
   13      H       1.6586689065     0.0021591403    -1.9214830455
   14      H       3.7479772215     2.2942108031     1.6188232050
   15      H       2.6905053614     2.3742628508     0.2292530491
   16      H       5.1689594380     0.9906775910    -0.5428761855
   17      H       5.4272491992     3.7762586244     0.6725800577
   18      H       6.8138741079     2.6670202406     1.9977651686
   19      H       7.1715885512     2.3394482766    -1.0007736557
   20      O       2.0858255987    -1.5976441946     0.0197631223
   21      O       4.1915239031    -0.3895818236     1.4131032373
   22      O       4.6675783738     0.1642150891     2.6373202916
   23      H       1.6425055136    -0.4547198897     1.8212866828
   24      H       3.5921397132    -0.5982132448    -0.9620916838
   25      H       2.7620516963    -2.2779226466     0.1196135362
 ----------------------------------------------------------------

   20    -874.0444575079      5.76e-08  Convergence criterion met
 Total energy in the final basis set =     -874.0383190072
 Final energy is   -874.038319007245
 **  OPTIMIZATION CONVERGED  **

                    Orbital Energies (a.u.)
 --------------------------------------------------------------

 Alpha MOs
 -- Occupied --
-19.4672 -19.4189 -19.4039 -19.3898 -19.3602 -19.3533 -19.3517 -19.3516
-19.3513 -10.4626 -10.4584 -10.4556 -10.4169 -10.3529  -1.3475  -1.2775
 -1.2152  -1.2127  -1.1741  -1.1456  -1.1432  -1.0453  -1.0299  -0.9115
 -0.8535  -0.8113  -0.7599  -0.7194  -0.6913  -0.6869  -0.6660  -0.6562
 -0.6462  -0.6411  -0.6165  -0.6102  -0.6008  -0.5906  -0.5764  -0.5501
 -0.5460  -0.5274  -0.5246  -0.5018  -0.4884  -0.4785  -0.4643  -0.4582
 -0.4482  -0.4456  -0.4262  -0.4235  -0.4104  -0.4069  -0.4038  -0.3944
 -0.3858

 Beta MOs
 -- Occupied --
-19.4568 -19.4039 -19.4002 -19.3898 -19.3601 -19.3533 -19.3516 -19.3516
-19.3513 -10.4626 -10.4580 -10.4556 -10.4173 -10.3528  -1.3214  -1.2775
 -1.2152  -1.2123  -1.1741  -1.1454  -1.1432  -1.0445  -1.0046  -0.9017
 -0.8489  -0.8108  -0.7561  -0.7189  -0.6869  -0.6845  -0.6624  -0.6558
 -0.6364  -0.6268  -0.6103  -0.6052  -0.5886  -0.5820  -0.5663  -0.5490
 -0.5318  -0.5252  -0.5122  -0.4960  -0.4861  -0.4778  -0.4637  -0.4544
 -0.4474  -0.4377  -0.4258  -0.4180  -0.4079  -0.4034  -0.3941  -0.3865

          Ground-State Mulliken Net Atomic Charges

     Atom                 Charge (a.u.)    Spin (a.u.)
  --------------------------------------------------------
      1 C                     0.039034      -0.000914
      2 O                    -0.406219      -0.000240
      3 C                    -0.122962       0.000592
      4 O                    -0.423438      -0.000126
      5 C                    -0.519311      -0.004187
      6 C                    -0.124741       0.010643
      7 O                     0.126784       0.312268
      8 O                    -0.237011       0.667136
      9 C                    -0.344136       0.011507
     10 O                    -0.421868       0.001459
     11 O                    -0.442793      -0.000921
     12 H                     0.411960       0.000094
     13 H                     0.342773       0.000123
     14 H                     0.322964       0.000211
     15 H                     0.305875       0.000275
     16 H                     0.395143       0.001521
     17 H                     0.319472      -0.000723
     18 H                     0.357219       0.000476
     19 H                     0.348285       0.000553
     20 O                    -0.467461       0.000020
     21 O                    -0.138135       0.000338
     22 O                    -0.348931      -0.000020
     23 H                     0.350784       0.000117
     24 H                     0.332736      -0.000101
     25 H                     0.343978      -0.000103
  --------------------------------------------------------
  Sum of atomic charges =     0.000000

                    Cartesian Multipole Moments
 -----------------------------------------------------------------
    Charge (ESU x 10^10)
                 0.0000
    Dipole Moment (Debye)
         X       3.4142      Y      -0.9399      Z      -0.1713
       Tot       3.5453
    Quadrupole Moments (Debye-Ang)
        XX     -58.0736     XY       2.0484     YY     -78.6401
        XZ      10.0118     YZ      18.0157     ZZ     -91.0597

 Total job time:  6604.94s(wall), 92372.63s(cpu)
        *  Thank you very much for using Q-Chem.  Have a nice day.  *
