 Q-Chem 5.4, Q-Chem, Inc., Pleasanton, CA (2021)
 Q-Chem 5.4.1 for Intel X86 EM64T Linux

User input:
--------------------------------------------------------------
$molecule
0 2
C   -0.0788662   -0.2194728    0.7168987
C   -0.9774746   -0.8856012    1.7441072
C   -1.6191851   -2.1238335    1.1810674
C   -1.9809015   -2.1603518   -0.0944288
C   -1.7819778   -0.9811089   -0.9967090
C   -1.1762441    0.2236216   -0.2539194
C   -0.7505148    1.3969173   -1.1298950
H    0.3956171    0.6589881    1.1570558
H   -0.5077660   -1.0379253    2.7115760
H   -1.8043999   -2.9594513    1.8415109
H   -2.4652366   -3.0261418   -0.5265956
H   -2.7180883   -0.6666800   -1.4564726
H   -1.4762275    1.5813732   -1.9220545
O    0.5527122    1.1916637   -1.6654489
H   -0.7012299    2.2742842   -0.4873852
H    0.4804280    0.7231460   -2.5032047
O    0.8680367   -1.1020439    0.1661267
H    1.3228865   -0.6177905   -0.5355252
O   -1.9501146    0.1461126    1.9503980
O   -2.2239183    0.6762474    0.6154166
O   -1.3273552   -0.9497116   -3.2551318
O   -0.9278459   -1.4172336   -2.1047810
$end

$rem
BASIS = 6-311++G(2df,2p)
GUI = 2
JOB_TYPE = Frequency
METHOD = wB97M-V
SOLVENT_METHOD = SMD
SCF_ALGORITHM = DIIS_GDM
MAX_SCF_CYCLES = 400
SCF_CONVERGENCE = 7
THRESH = 12
$end
--------------------------------------------------------------

   23    -723.2864642846      4.05e-08  Convergence criterion met
 Total energy in the final basis set =     -723.2823754631
   18    -723.2864665088      7.48e-08  Convergence criterion met
 Total energy in the final basis set =     -723.2823744429
   18    -723.2864600805      7.48e-08  Convergence criterion met
 Total energy in the final basis set =     -723.2823743240
   18    -723.2864605310      7.46e-08  Convergence criterion met
 Total energy in the final basis set =     -723.2823743337
   18    -723.2864659629      7.49e-08  Convergence criterion met
 Total energy in the final basis set =     -723.2823743622
   18    -723.2864618273      7.47e-08  Convergence criterion met
 Total energy in the final basis set =     -723.2823745394
   18    -723.2864649942      7.46e-08  Convergence criterion met
 Total energy in the final basis set =     -723.2823745791
   18    -723.2864635859      7.51e-08  Convergence criterion met
 Total energy in the final basis set =     -723.2823747431
   18    -723.2864634698      7.79e-08  Convergence criterion met
 Total energy in the final basis set =     -723.2823746803
   18    -723.2864637395      7.64e-08  Convergence criterion met
 Total energy in the final basis set =     -723.2823750263
   18    -723.2864640252      8.66e-08  Convergence criterion met
 Total energy in the final basis set =     -723.2823750955
   18    -723.2864640890      8.01e-08  Convergence criterion met
 Total energy in the final basis set =     -723.2823751451
   18    -723.2864639252      8.98e-08  Convergence criterion met
 Total energy in the final basis set =     -723.2823752260
   18    -723.2864633183      7.65e-08  Convergence criterion met
 Total energy in the final basis set =     -723.2823745239
   18    -723.2864635088      7.98e-08  Convergence criterion met
 Total energy in the final basis set =     -723.2823746601

                    Orbital Energies (a.u.)
 --------------------------------------------------------------

 Alpha MOs
 -- Occupied --
-19.4684 -19.4196 -19.4091 -19.4089 -19.3484 -19.3473 -10.4222 -10.4197
-10.4111 -10.4097 -10.3964 -10.3588 -10.3554  -1.3468  -1.2804  -1.1770
 -1.1627  -1.0783  -1.0313  -0.9592  -0.8956  -0.8483  -0.8113  -0.7639
 -0.7244  -0.6957  -0.6659  -0.6568  -0.6444  -0.6245  -0.6177  -0.5998
 -0.5837  -0.5699  -0.5651  -0.5577  -0.5339  -0.5194  -0.5093  -0.4959
 -0.4834  -0.4684  -0.4483  -0.4436  -0.4161  -0.4104  -0.3983  -0.3871
 -0.3692  -0.3645

 Beta MOs
 -- Occupied --
-19.4577 -19.4091 -19.4088 -19.4010 -19.3484 -19.3473 -10.4219 -10.4201
-10.4111 -10.4097 -10.3964 -10.3587 -10.3554  -1.3205  -1.2802  -1.1768
 -1.1627  -1.0778  -1.0100  -0.9479  -0.8949  -0.8427  -0.8077  -0.7633
 -0.7208  -0.6923  -0.6639  -0.6505  -0.6317  -0.6192  -0.6002  -0.5842
 -0.5792  -0.5651  -0.5642  -0.5350  -0.5292  -0.5105  -0.5080  -0.4940
 -0.4817  -0.4678  -0.4455  -0.4399  -0.4025  -0.3960  -0.3876  -0.3724
 -0.3648

          Ground-State Mulliken Net Atomic Charges

     Atom                 Charge (a.u.)    Spin (a.u.)
  --------------------------------------------------------
      1 C                    -0.047283       0.001029
      2 C                    -0.070568      -0.000899
      3 C                    -0.503007       0.002474
      4 C                    -0.040020       0.005276
      5 C                    -0.572258      -0.007007
      6 C                     0.017750       0.008018
      7 C                    -0.396577       0.006435
      8 H                     0.327525       0.000067
      9 H                     0.284549       0.000025
     10 H                     0.308799      -0.000041
     11 H                     0.324345       0.000619
     12 H                     0.337912      -0.000384
     13 H                     0.277053      -0.000281
     14 O                    -0.368926       0.000938
     15 H                     0.242140       0.001508
     16 H                     0.316055      -0.001765
     17 O                    -0.401458       0.002742
     18 H                     0.343701      -0.000827
     19 O                    -0.121614       0.000555
     20 O                    -0.112636       0.001251
     21 O                    -0.205946       0.663393
     22 O                     0.060467       0.316874
  --------------------------------------------------------
  Sum of atomic charges =     0.000000

                    Cartesian Multipole Moments
 -----------------------------------------------------------------
    Charge (ESU x 10^10)
                 0.0000
    Dipole Moment (Debye)
         X       0.1320      Y      -0.4892      Z       0.3089
       Tot       0.5935
    Quadrupole Moments (Debye-Ang)
        XX     -79.9884     XY       6.0428     YY     -74.4653
        XZ       3.7875     YZ      -7.1624     ZZ     -77.6399

             Standard Nuclear Orientation (Angstroms)
    I     Atom           X                Y                Z
 ----------------------------------------------------------------
    1      C      -0.0788662000    -0.2194728000     0.7168987000
    2      C      -0.9774746000    -0.8856012000     1.7441072000
    3      C      -1.6191851000    -2.1238335000     1.1810674000
    4      C      -1.9809015000    -2.1603518000    -0.0944288000
    5      C      -1.7819778000    -0.9811089000    -0.9967090000
    6      C      -1.1762441000     0.2236216000    -0.2539194000
    7      C      -0.7505148000     1.3969173000    -1.1298950000
    8      H       0.3956171000     0.6589881000     1.1570558000
    9      H      -0.5077660000    -1.0379253000     2.7115760000
   10      H      -1.8043999000    -2.9594513000     1.8415109000
   11      H      -2.4652366000    -3.0261418000    -0.5265956000
   12      H      -2.7180883000    -0.6666800000    -1.4564726000
   13      H      -1.4762275000     1.5813732000    -1.9220545000
   14      O       0.5527122000     1.1916637000    -1.6654489000
   15      H      -0.7012299000     2.2742842000    -0.4873852000
   16      H       0.4804280000     0.7231460000    -2.5032047000
   17      O       0.8680367000    -1.1020439000     0.1661267000
   18      H       1.3228865000    -0.6177905000    -0.5355252000
   19      O      -1.9501146000     0.1461126000     1.9503980000
   20      O      -2.2239183000     0.6762474000     0.6154166000
   21      O      -1.3273552000    -0.9497116000    -3.2551318000
   22      O      -0.9278459000    -1.4172336000    -2.1047810000
 ----------------------------------------------------------------

 Frequency:        72.45                  89.45                 113.07
 Force Cnst:      0.0295                 0.0273                 0.0309
 Red. Mass:       9.5383                 5.7994                 4.1020
 IR Intens:        3.202                  4.696                 11.358
 Frequency:       160.36                 189.18                 204.64
 Force Cnst:      0.0947                 0.1517                 0.1250
 Red. Mass:       6.2475                 7.1962                 5.0672
 IR Intens:       31.965                  9.589                 12.744
 Frequency:       226.61                 282.83                 323.10
 Force Cnst:      0.1443                 0.2376                 0.4201
 Red. Mass:       4.7688                 5.0411                 6.8299
 IR Intens:       11.103                 11.208                  9.392
 Frequency:       360.08                 367.63                 398.55
 Force Cnst:      0.2308                 0.1193                 0.2563
 Red. Mass:       3.0215                 1.4978                 2.7389
 IR Intens:       62.454                139.540                 56.765
 Frequency:       419.07                 430.20                 461.44
 Force Cnst:      0.4046                 0.1321                 0.5986
 Red. Mass:       3.9100                 1.2115                 4.7714
 IR Intens:       40.735                153.498                 31.099
 Frequency:       519.15                 557.80                 613.47
 Force Cnst:      0.7660                 1.1153                 1.1498
 Red. Mass:       4.8241                 6.0841                 5.1856
 IR Intens:       12.200                  4.266                  9.869
 Frequency:       644.45                 713.67                 766.96
 Force Cnst:      1.4538                 1.2260                 0.8851
 Red. Mass:       5.9411                 4.0856                 2.5539
 IR Intens:        3.686                 14.691                 46.391
 Frequency:       796.84                 874.73                 900.84
 Force Cnst:      1.1242                 1.8183                 1.6721
 Red. Mass:       3.0050                 4.0333                 3.4972
 IR Intens:       23.227                 77.253                  6.477
 Frequency:       923.76                 973.66                 977.43
 Force Cnst:      0.9443                 2.5518                 3.8934
 Red. Mass:       1.8782                 4.5686                 6.9169
 IR Intens:        5.341                 15.322                110.113
 Frequency:      1002.75                1019.45                1036.96
 Force Cnst:      1.6373                 1.1256                 1.2434
 Red. Mass:       2.7637                 1.8383                 1.9626
 IR Intens:       55.373                 49.064                 28.609
 Frequency:      1061.94                1078.79                1083.32
 Force Cnst:      2.7369                 3.1565                 1.2795
 Red. Mass:       4.1192                 4.6035                 1.8504
 IR Intens:      132.321                 32.399                 34.576
 Frequency:      1131.92                1176.09                1197.08
 Force Cnst:      1.0655                 0.9439                 1.7945
 Red. Mass:       1.4114                 1.1582                 2.1255
 IR Intens:        5.170                 26.393                 15.995
 Frequency:      1225.08                1270.33                1276.45
 Force Cnst:      1.1633                10.2325                 1.6484
 Red. Mass:       1.3155                10.7621                 1.7171
 IR Intens:       35.693                 14.701                 51.008
 Frequency:      1287.04                1314.48                1325.01
 Force Cnst:      1.7363                 1.4600                 2.4797
 Red. Mass:       1.7790                 1.4342                 2.3972
 IR Intens:       13.854                  1.243                174.411
 Frequency:      1332.04                1356.15                1394.20
 Force Cnst:      1.2916                 1.6527                 1.4364
 Red. Mass:       1.2355                 1.5252                 1.2542
 IR Intens:       41.064                  3.932                 19.894
 Frequency:      1397.76                1398.63                1414.41
 Force Cnst:      1.6708                 2.1778                 1.9115
 Red. Mass:       1.4514                 1.8895                 1.6217
 IR Intens:        2.612                 52.667                 34.075
 Frequency:      1458.20                1476.07                1735.02
 Force Cnst:      2.5889                 1.3901                12.4639
 Red. Mass:       2.0665                 1.0829                 7.0274
 IR Intens:       26.078                  9.732                  1.093
 Frequency:      3077.33                3082.47                3109.37
 Force Cnst:      5.9089                 6.0803                 6.1846
 Red. Mass:       1.0590                 1.0861                 1.0857
 IR Intens:       36.202                 39.341                  2.465
 Frequency:      3134.76                3154.37                3195.50
 Force Cnst:      6.4193                 6.3830                 6.5441
 Red. Mass:       1.1087                 1.0888                 1.0877
 IR Intens:       22.877                  5.960                  1.998
 Frequency:      3216.07                3776.68                3844.77
 Force Cnst:      6.7023                 8.9612                 9.2897
 Red. Mass:       1.0998                 1.0663                 1.0666
 IR Intens:        8.057                215.942                128.883

 STANDARD THERMODYNAMIC QUANTITIES AT   298.15 K  AND     1.00 ATM

   This Molecule has  0 Imaginary Frequencies
   Zero point vibrational energy:      104.933 kcal/mol

   Atom    1 Element C  Has Mass   12.00000
   Atom    2 Element C  Has Mass   12.00000
   Atom    3 Element C  Has Mass   12.00000
   Atom    4 Element C  Has Mass   12.00000
   Atom    5 Element C  Has Mass   12.00000
   Atom    6 Element C  Has Mass   12.00000
   Atom    7 Element C  Has Mass   12.00000
   Atom    8 Element H  Has Mass    1.00783
   Atom    9 Element H  Has Mass    1.00783
   Atom   10 Element H  Has Mass    1.00783
   Atom   11 Element H  Has Mass    1.00783
   Atom   12 Element H  Has Mass    1.00783
   Atom   13 Element H  Has Mass    1.00783
   Atom   14 Element O  Has Mass   15.99491
   Atom   15 Element H  Has Mass    1.00783
   Atom   16 Element H  Has Mass    1.00783
   Atom   17 Element O  Has Mass   15.99491
   Atom   18 Element H  Has Mass    1.00783
   Atom   19 Element O  Has Mass   15.99491
   Atom   20 Element O  Has Mass   15.99491
   Atom   21 Element O  Has Mass   15.99491
   Atom   22 Element O  Has Mass   15.99491
   Molecular Mass:   189.039930 amu
   Principal axes and moments of inertia in amu*Bohr^2:
                             1           2           3
    Eigenvalues --     1481.43216  2206.43619  2577.11423
          X              -0.21334     0.39061     0.89549
          Y              -0.12234     0.89870    -0.42115
          Z               0.96929     0.19940     0.14395
   Rotational Symmetry Number is   1
   The Molecule is an Asymmetric Top
   Translational Enthalpy:        0.889 kcal/mol
   Rotational Enthalpy:           0.889 kcal/mol
   Vibrational Enthalpy:        110.439 kcal/mol
   gas constant (RT):             0.592 kcal/mol
   Translational Entropy:        41.616  cal/mol.K
   Rotational Entropy:           30.511  cal/mol.K
   Vibrational Entropy:          32.501  cal/mol.K

   Total Enthalpy:              112.809 kcal/mol
   Total Entropy:               104.628  cal/mol.K
 Total job time:  51363.47s(wall), 731111.25s(cpu)
        *  Thank you very much for using Q-Chem.  Have a nice day.  *
