 Q-Chem 5.4, Q-Chem, Inc., Pleasanton, CA (2021)
 Q-Chem 5.4.1 for Intel X86 EM64T Linux

User input:
--------------------------------------------------------------
$molecule
0 2
C        -0.0824806221   -0.2208014171    0.7066884020
C        -0.9708538377   -0.8885328410    1.7468571217
C        -1.6215798918   -2.1316914324    1.1965043063
C        -2.0017733933   -2.1693670116   -0.0800657111
C        -1.7923580925   -0.9949010837   -0.9923148178
C        -1.1929679575    0.2199667497   -0.2533734640
C        -0.7514896498    1.3886282847   -1.1335937807
H         0.3930127621    0.6647268880    1.1465803044
H        -0.4938498884   -1.0343436355    2.7171410437
H        -1.8080763571   -2.9666134710    1.8652815950
H        -2.4984045854   -3.0369961825   -0.5062220038
H        -2.7211568735   -0.6868023302   -1.4809607395
H        -1.4871688862    1.6071993372   -1.9139613154
O         0.5387118697    1.1366496553   -1.6884544233
H        -0.6603282653    2.2622698953   -0.4821289334
H         0.4135600714    0.6696784024   -2.5305371159
O         0.8576300871   -1.0899281815    0.1224474234
H         1.2425116882   -0.5735371600   -0.6110983380
O        -1.9457419466    0.1452804869    1.9620616882
O        -2.2397196510    0.6722451871    0.6185769350
O        -1.1094051912   -0.7854470364   -3.1815829813
O        -0.9157369889   -1.4626753040   -2.0752396953
$end

$rem
BASIS = 6-311++G(2df,2p)
GUI = 2
JOB_TYPE = Optimization
METHOD = wB97M-V
SCF_ALGORITHM = DIIS_GDM
MAX_SCF_CYCLES = 400
GEOM_OPT_MAX_CYCLES = 150
SCF_CONVERGENCE = 7
THRESH = 12
Solvent_method = SMD
$end
--------------------------------------------------------------

   23    -723.2851511311      4.72e-08  Convergence criterion met
 Total energy in the final basis set =     -723.2811753330
   21    -723.2860238897      4.62e-08  Convergence criterion met
 Total energy in the final basis set =     -723.2819447841
   20    -723.2862321848      6.08e-08  Convergence criterion met
 Total energy in the final basis set =     -723.2821862958
   19    -723.2864141804      9.70e-08  Convergence criterion met
 Total energy in the final basis set =     -723.2823386065
   20    -723.2864612286      5.23e-08  Convergence criterion met
 Total energy in the final basis set =     -723.2823662245
   18    -723.2864648398      6.63e-08  Convergence criterion met
 Total energy in the final basis set =     -723.2823741537
   18    -723.2864642236      8.51e-08  Convergence criterion met
 Total energy in the final basis set =     -723.2823751792

             Standard Nuclear Orientation (Angstroms)
    I     Atom           X                Y                Z
 ----------------------------------------------------------------
    1      C      -0.0788662201    -0.2194727702     0.7168987069
    2      C      -0.9774746376    -0.8856011949     1.7441071780
    3      C      -1.6191850543    -2.1238335225     1.1810673618
    4      C      -1.9809014567    -2.1603518312    -0.0944288385
    5      C      -1.7819778087    -0.9811088820    -0.9967089982
    6      C      -1.1762440587     0.2236216387    -0.2539193968
    7      C      -0.7505147912     1.3969173428    -1.1298949551
    8      H       0.3956171338     0.6589881123     1.1570557543
    9      H      -0.5077660035    -1.0379252755     2.7115759567
   10      H      -1.8043998519    -2.9594513110     1.8415109144
   11      H      -2.4652366217    -3.0261418362    -0.5265956330
   12      H      -2.7180882527    -0.6666800269    -1.4564726228
   13      H      -1.4762274891     1.5813732004    -1.9220545458
   14      O       0.5527121942     1.1916636616    -1.6654489097
   15      H      -0.7012298597     2.2742841915    -0.4873851671
   16      H       0.4804279568     0.7231459604    -2.5032047492
   17      O       0.8680366823    -1.1020439193     0.1661267424
   18      H       1.3228864686    -0.6177905470    -0.5355251920
   19      O      -1.9501145887     0.1461125583     1.9503980172
   20      O      -2.2239182898     0.6762474400     0.6154166463
   21      O      -1.3273551993    -0.9497115537    -3.2551318039
   22      O      -0.9278458521    -1.4172336360    -2.1047809656
 ----------------------------------------------------------------

   18    -723.2864642844      7.79e-08  Convergence criterion met
 Total energy in the final basis set =     -723.2823754630
 Final energy is   -723.282375463000
 **  OPTIMIZATION CONVERGED  **

                    Orbital Energies (a.u.)
 --------------------------------------------------------------

 Alpha MOs
 -- Occupied --
-19.4683 -19.4197 -19.4091 -19.4089 -19.3484 -19.3473 -10.4222 -10.4197
-10.4111 -10.4097 -10.3964 -10.3588 -10.3554  -1.3464  -1.2804  -1.1770
 -1.1627  -1.0783  -1.0316  -0.9592  -0.8956  -0.8483  -0.8113  -0.7639
 -0.7244  -0.6957  -0.6659  -0.6568  -0.6443  -0.6244  -0.6176  -0.5998
 -0.5836  -0.5699  -0.5651  -0.5577  -0.5339  -0.5194  -0.5093  -0.4959
 -0.4834  -0.4684  -0.4484  -0.4436  -0.4162  -0.4105  -0.3984  -0.3871
 -0.3692  -0.3645

 Beta MOs
 -- Occupied --
-19.4577 -19.4091 -19.4088 -19.4011 -19.3484 -19.3473 -10.4219 -10.4200
-10.4111 -10.4097 -10.3964 -10.3587 -10.3554  -1.3201  -1.2802  -1.1768
 -1.1627  -1.0778  -1.0101  -0.9479  -0.8949  -0.8427  -0.8077  -0.7633
 -0.7208  -0.6923  -0.6639  -0.6505  -0.6317  -0.6192  -0.6001  -0.5842
 -0.5792  -0.5651  -0.5641  -0.5349  -0.5291  -0.5105  -0.5080  -0.4940
 -0.4817  -0.4678  -0.4455  -0.4399  -0.4025  -0.3961  -0.3877  -0.3724
 -0.3648

          Ground-State Mulliken Net Atomic Charges

     Atom                 Charge (a.u.)    Spin (a.u.)
  --------------------------------------------------------
      1 C                    -0.047250       0.001020
      2 C                    -0.070569      -0.000903
      3 C                    -0.502953       0.002501
      4 C                    -0.040047       0.005252
      5 C                    -0.571870      -0.006949
      6 C                     0.017178       0.008077
      7 C                    -0.396559       0.006435
      8 H                     0.327519       0.000068
      9 H                     0.284547       0.000025
     10 H                     0.308793      -0.000040
     11 H                     0.324353       0.000616
     12 H                     0.337877      -0.000386
     13 H                     0.277051      -0.000280
     14 O                    -0.368929       0.000938
     15 H                     0.242141       0.001512
     16 H                     0.316055      -0.001765
     17 O                    -0.401439       0.002745
     18 H                     0.343704      -0.000828
     19 O                    -0.121619       0.000557
     20 O                    -0.112673       0.001259
     21 O                    -0.205789       0.663752
     22 O                     0.060481       0.316395
  --------------------------------------------------------
  Sum of atomic charges =    -0.000000

                    Cartesian Multipole Moments
 -----------------------------------------------------------------
    Charge (ESU x 10^10)
                -0.0000
    Dipole Moment (Debye)
         X       0.1315      Y      -0.4887      Z       0.3053
       Tot       0.5910
    Quadrupole Moments (Debye-Ang)
        XX     -79.9885     XY       6.0424     YY     -74.4680
        XZ       3.7947     YZ      -7.1608     ZZ     -77.6273

 Total job time:  3847.96s(wall), 54329.22s(cpu)
        *  Thank you very much for using Q-Chem.  Have a nice day.  *
