 Q-Chem 5.4, Q-Chem, Inc., Pleasanton, CA (2021)
 Q-Chem 5.4.1 for Intel X86 EM64T Linux

User input:
--------------------------------------------------------------
$molecule
0 1
C         0.9069577499   -0.1511643788    0.4132771414
C         2.4004757208   -0.3486784084    0.5343247265
O         3.0537535884   -0.4555070899   -0.7286192638
C         0.2202573030    0.6758321006    1.3014744373
C        -1.1611628988    0.8359417171    1.2167993897
C        -1.8690037277    0.1671493413    0.2206015816
O        -3.2317279133    0.2875566661    0.0791872364
C        -1.1984620766   -0.6571593816   -0.6844630351
C         0.1783179684   -0.8118364367   -0.5810356298
H         2.6222968053   -1.2875832291    1.0531675294
H         2.8326965886    0.4641461578    1.1336212927
H         2.8699822441    0.3701508168   -1.2059052686
H         0.7700111392    1.2097252275    2.0734276546
H        -1.6891146107    1.4840352214    1.9124100586
H        -3.5606674957    0.8870861428    0.7697538837
H        -1.7651954616   -1.1676768773   -1.4576216853
H         0.6990271768   -1.4502635898   -1.2896010491
$end

$rem
BASIS = 6-311++G(2df,2p)
GUI = 2
JOB_TYPE = Optimization
METHOD = wB97M-V
SCF_ALGORITHM = DIIS_GDM
MAX_SCF_CYCLES = 400
GEOM_OPT_MAX_CYCLES = 150
SCF_CONVERGENCE = 7
THRESH = 12
Solvent_method = SMD
$end
--------------------------------------------------------------

   15    -422.0024353106      6.27e-08  Convergence criterion met
 Total energy in the final basis set =     -421.9962900052
   13    -422.0029293498      6.21e-08  Convergence criterion met
 Total energy in the final basis set =     -421.9968210512
   13    -422.0029927700      5.84e-08  Convergence criterion met
 Total energy in the final basis set =     -421.9968849176
   12    -422.0031809104      8.63e-08  Convergence criterion met
 Total energy in the final basis set =     -421.9970697963
   13    -422.0033187998      5.00e-08  Convergence criterion met
 Total energy in the final basis set =     -421.9972132379
   13    -422.0034507740      3.02e-08  Convergence criterion met
 Total energy in the final basis set =     -421.9973447163
   12    -422.0035907438      9.94e-08  Convergence criterion met
 Total energy in the final basis set =     -421.9974859790
   13    -422.0036898438      2.09e-08  Convergence criterion met
 Total energy in the final basis set =     -421.9976006986
   13    -422.0037054792      3.50e-08  Convergence criterion met
 Total energy in the final basis set =     -421.9976271656
   13    -422.0037261956      2.30e-08  Convergence criterion met
 Total energy in the final basis set =     -421.9976374285
   13    -422.0037279775      2.33e-08  Convergence criterion met
 Total energy in the final basis set =     -421.9976386777

             Standard Nuclear Orientation (Angstroms)
    I     Atom           X                Y                Z
 ----------------------------------------------------------------
    1      C       0.8939981104    -0.2674962870     0.3947414808
    2      C       2.3818798773    -0.4647346354     0.4508342732
    3      O       3.0544996543     0.1598903827    -0.6538173056
    4      C       0.2765326608     0.7139684854     1.1613718841
    5      C      -1.0914268980     0.9349554910     1.0774744880
    6      C      -1.8530128816     0.1632845181     0.2118548189
    7      O      -3.2110228360     0.3357799696     0.0880052588
    8      C      -1.2572220385    -0.8249437048    -0.5628735755
    9      C       0.1079005297    -1.0327899853    -0.4651035932
   10      H       2.6345514444    -1.5213463470     0.3833554525
   11      H       2.7767483026    -0.0767559070     1.3915931581
   12      H       2.8579247598     1.1025802230    -0.6191629491
   13      H       0.8710374403     1.3152456072     1.8381899893
   14      H      -1.5689089416     1.6983932538     1.6788808486
   15      H      -3.4993521786     1.0412442546     0.6793166842
   16      H      -1.8679747265    -1.4207824781    -1.2273762557
   17      H       0.5722898214    -1.8047388409    -1.0664856574
 ----------------------------------------------------------------

   13    -422.0037293690      2.40e-08  Convergence criterion met
 Total energy in the final basis set =     -421.9976391640
 Final energy is   -421.997639164040
 **  OPTIMIZATION CONVERGED  **

                    Orbital Energies (a.u.)
 --------------------------------------------------------------

 Alpha MOs
 -- Occupied --
-19.3613 -19.3352 -10.4093 -10.3832 -10.3470 -10.3465 -10.3433 -10.3419
-10.3408  -1.1884  -1.1505  -0.9863  -0.8850  -0.8749  -0.7926  -0.7407
 -0.7072  -0.6547  -0.6279  -0.5837  -0.5757  -0.5457  -0.5412  -0.5260
 -0.5246  -0.4966  -0.4903  -0.4478  -0.4421  -0.4311  -0.3900  -0.3505
 -0.3171

          Ground-State Mulliken Net Atomic Charges

     Atom                 Charge (a.u.)
  ----------------------------------------
      1 C                     0.146641
      2 C                    -0.544236
      3 O                    -0.417519
      4 C                    -0.383624
      5 C                    -0.066149
      6 C                    -0.211508
      7 O                    -0.400571
      8 C                    -0.337209
      9 C                     0.014460
     10 H                     0.203727
     11 H                     0.197770
     12 H                     0.329471
     13 H                     0.282743
     14 H                     0.269431
     15 H                     0.348410
     16 H                     0.284762
     17 H                     0.283401
  ----------------------------------------
  Sum of atomic charges =     0.000000

                    Cartesian Multipole Moments
 -----------------------------------------------------------------
    Charge (ESU x 10^10)
                -0.0000
    Dipole Moment (Debye)
         X      -1.2178      Y       2.4497      Z       2.9705
       Tot       4.0383
    Quadrupole Moments (Debye-Ang)
        XX     -59.3159     XY      -2.8541     YY     -46.6924
        XZ       1.0981     YZ       5.3125     ZZ     -53.0519

 Total job time:  2039.15s(wall), 15716.88s(cpu)
        *  Thank you very much for using Q-Chem.  Have a nice day.  *
