 Q-Chem 5.4, Q-Chem, Inc., Pleasanton, CA (2021)
 Q-Chem 5.4.1 for Intel X86 EM64T Linux

User input:
--------------------------------------------------------------
$molecule
0 1
C         0.6483783872   -0.3974544840    0.0000000000
O         1.7131351852    0.1664069197    0.0000000000
H         0.5430712774   -1.4914309589    0.0000000000
C        -0.6483783872    0.3974544840    0.0000000000
H        -0.5430712774    1.4914309589    0.0000000000
O        -1.7131351852   -0.1664069197    0.0000000000
$end

$rem
BASIS = 6-311++G(2df,2p)
GUI = 2
JOB_TYPE = Frequency
METHOD = wB97M-V
SOLVENT_METHOD = SMD
SCF_ALGORITHM = DIIS_GDM
MAX_SCF_CYCLES = 400
SCF_CONVERGENCE = 7
THRESH = 12
UNRESTRICTED = 1
SYMMETRY_IGNORE = 1
$end
--------------------------------------------------------------

   11    -227.8426487372      2.56e-08  Convergence criterion met
 Total energy in the final basis set =     -227.8350842752
   11    -227.8426518817      7.23e-08  Convergence criterion met
 Total energy in the final basis set =     -227.8350821743
   11    -227.8426426356      8.26e-08  Convergence criterion met
 Total energy in the final basis set =     -227.8350834362
   11    -227.8426476763      7.45e-08  Convergence criterion met
 Total energy in the final basis set =     -227.8350834142
   11    -227.8426472249      7.47e-08  Convergence criterion met
 Total energy in the final basis set =     -227.8350825638
   12    -227.8426484552      6.85e-08  Convergence criterion met
 Total energy in the final basis set =     -227.8350839931
   12    -227.8426484552      8.37e-08  Convergence criterion met
 Total energy in the final basis set =     -227.8350839931
   13    -227.8426451350      4.65e-08  Convergence criterion met
 Total energy in the final basis set =     -227.8350842362
   12    -227.8426486982      7.01e-08  Convergence criterion met
 Total energy in the final basis set =     -227.8350842362
   13    -227.8426498485      4.82e-08  Convergence criterion met
 Total energy in the final basis set =     -227.8350830706
   11    -227.8426451350      7.43e-08  Convergence criterion met
 Total energy in the final basis set =     -227.8350830111
   11    -227.8426494984      7.89e-08  Convergence criterion met
 Total energy in the final basis set =     -227.8350839594
   11    -227.8426471037      7.68e-08  Convergence criterion met
 Total energy in the final basis set =     -227.8350837261
   13    -227.8426487064      3.64e-08  Convergence criterion met
 Total energy in the final basis set =     -227.8350842455
   12    -227.8426487064      4.85e-08  Convergence criterion met
 Total energy in the final basis set =     -227.8350842455

                    Orbital Energies (a.u.)
 --------------------------------------------------------------

 Alpha MOs
 -- Occupied --
-19.3702 -19.3702 -10.4544 -10.4542  -1.2216  -1.2080  -0.8237  -0.7104
 -0.6123  -0.6119  -0.5703  -0.5580  -0.5018  -0.4415  -0.3712

 Beta MOs
 -- Occupied --
-19.3702 -19.3702 -10.4544 -10.4542  -1.2216  -1.2080  -0.8237  -0.7104
 -0.6123  -0.6119  -0.5703  -0.5580  -0.5018  -0.4415  -0.3712

          Ground-State Mulliken Net Atomic Charges

     Atom                 Charge (a.u.)    Spin (a.u.)
  --------------------------------------------------------
      1 C                     0.135355       0.000000
      2 O                    -0.327573       0.000000
      3 H                     0.192219       0.000000
      4 C                     0.135355       0.000000
      5 H                     0.192219       0.000000
      6 O                    -0.327573       0.000000
  --------------------------------------------------------
  Sum of atomic charges =     0.000000

                    Cartesian Multipole Moments
 -----------------------------------------------------------------
    Charge (ESU x 10^10)
                 0.0000
    Dipole Moment (Debye)
         X       0.0000      Y       0.0000      Z       0.0022
       Tot       0.0022
    Quadrupole Moments (Debye-Ang)
        XX     -34.3125     XY      -3.1484     YY     -20.0474
        XZ      -0.0041     YZ      -0.0009     ZZ     -21.4876

             Standard Nuclear Orientation (Angstroms)
    I     Atom           X                Y                Z
 ----------------------------------------------------------------
    1      C       0.6483783872    -0.3974544840     0.0000000000
    2      O       1.7131351852     0.1664069197     0.0000000000
    3      H       0.5430712774    -1.4914309589     0.0000000000
    4      C      -0.6483783872     0.3974544840     0.0000000000
    5      H      -0.5430712774     1.4914309589     0.0000000000
    6      O      -1.7131351852    -0.1664069197     0.0000000000
 ----------------------------------------------------------------

 Frequency:       111.66                 332.44                 561.55
 Force Cnst:      0.0315                 0.2921                 1.8152
 Red. Mass:       4.2906                 4.4860                 9.7701
 IR Intens:       68.258                 99.317                  0.000
 Frequency:       825.54                1088.29                1095.91
 Force Cnst:      0.5009                 3.0065                 1.3182
 Red. Mass:       1.2475                 4.3085                 1.8629
 IR Intens:        4.879                  0.000                  0.000
 Frequency:      1338.07                1381.82                1780.52
 Force Cnst:      1.2551                 1.3874                21.0836
 Red. Mass:       1.1898                 1.2333                11.2875
 IR Intens:       17.133                  0.000                549.383
 Frequency:      1813.68                3030.46                3036.22
 Force Cnst:     17.9157                 5.8986                 5.9289
 Red. Mass:       9.2441                 1.0901                 1.0916
 IR Intens:        0.000                108.129                  0.000

 STANDARD THERMODYNAMIC QUANTITIES AT   298.15 K  AND     1.00 ATM

   This Molecule has  0 Imaginary Frequencies
   Zero point vibrational energy:       23.439 kcal/mol

   Atom    1 Element C  Has Mass   12.00000
   Atom    2 Element O  Has Mass   15.99491
   Atom    3 Element H  Has Mass    1.00783
   Atom    4 Element C  Has Mass   12.00000
   Atom    5 Element H  Has Mass    1.00783
   Atom    6 Element O  Has Mass   15.99491
   Molecular Mass:    58.005480 amu
   Principal axes and moments of inertia in amu*Bohr^2:
                             1           2           3
    Eigenvalues --       32.64995   373.48504   406.13499
          X               0.99991    -0.01364     0.00000
          Y               0.01364     0.99991     0.00000
          Z               0.00000     0.00000     1.00000
   Rotational Symmetry Number is   1
   The Molecule is an Asymmetric Top
   Translational Enthalpy:        0.889 kcal/mol
   Rotational Enthalpy:           0.889 kcal/mol
   Vibrational Enthalpy:         24.330 kcal/mol
   gas constant (RT):             0.592 kcal/mol
   Translational Entropy:        38.094  cal/mol.K
   Rotational Entropy:           23.119  cal/mol.K
   Vibrational Entropy:           5.374  cal/mol.K

   Total Enthalpy:               26.700 kcal/mol
   Total Entropy:                66.588  cal/mol.K
 Total job time:  731.92s(wall), 5605.47s(cpu)
        *  Thank you very much for using Q-Chem.  Have a nice day.  *
