 Q-Chem 5.4, Q-Chem, Inc., Pleasanton, CA (2021)
 Q-Chem 5.4.1 for Intel X86 EM64T Linux

User input:
--------------------------------------------------------------
$molecule
0 1
C         0.6532206427   -0.3927226279    0.0000000000
O         1.7135987287    0.1659589307    0.0000000000
H         0.5399731275   -1.4905649094    0.0000000000
C        -0.6532206427    0.3927226279    0.0000000000
H        -0.5399731275    1.4905649094    0.0000000000
O        -1.7135987287   -0.1659589307    0.0000000000
$end

$rem
BASIS = 6-311++G(2df,2p)
GUI = 2
JOB_TYPE = Optimization
METHOD = wB97M-V
SCF_ALGORITHM = DIIS_GDM
MAX_SCF_CYCLES = 400
GEOM_OPT_MAX_CYCLES = 150
SCF_CONVERGENCE = 7
THRESH = 12
SOLVENT_METHOD = smd
$end
--------------------------------------------------------------

   12    -227.8425200153      1.58e-08  Convergence criterion met
 Total energy in the final basis set =     -227.8349070198
   11    -227.8426506408      1.59e-08  Convergence criterion met
 Total energy in the final basis set =     -227.8350669219

             Standard Nuclear Orientation (Angstroms)
    I     Atom           X                Y                Z
 ----------------------------------------------------------------
    1      C       0.6483783872    -0.3974544840     0.0000000000
    2      O       1.7131351852     0.1664069197     0.0000000000
    3      H       0.5430712774    -1.4914309589     0.0000000000
    4      C      -0.6483783872     0.3974544840     0.0000000000
    5      H      -0.5430712774     1.4914309589     0.0000000000
    6      O      -1.7131351852    -0.1664069197     0.0000000000
 ----------------------------------------------------------------

   11    -227.8426487373      1.62e-08  Convergence criterion met
 Total energy in the final basis set =     -227.8350842753
 Final energy is   -227.835084275301
 **  OPTIMIZATION CONVERGED  **

                    Orbital Energies (a.u.)
 --------------------------------------------------------------

 Alpha MOs
 -- Occupied --
-19.3702 -19.3702 -10.4544 -10.4542  -1.2216  -1.2080  -0.8237  -0.7104
 -0.6123  -0.6119  -0.5703  -0.5580  -0.5018  -0.4415  -0.3712

          Ground-State Mulliken Net Atomic Charges

     Atom                 Charge (a.u.)
  ----------------------------------------
      1 C                     0.135355
      2 O                    -0.327573
      3 H                     0.192219
      4 C                     0.135355
      5 H                     0.192219
      6 O                    -0.327573
  ----------------------------------------
  Sum of atomic charges =     0.000000

                    Cartesian Multipole Moments
 -----------------------------------------------------------------
    Charge (ESU x 10^10)
                 0.0000
    Dipole Moment (Debye)
         X       0.0000      Y      -0.0000      Z      -0.0000
       Tot       0.0000
    Quadrupole Moments (Debye-Ang)
        XX     -34.3125     XY      -3.1484     YY     -20.0474
        XZ       0.0000     YZ       0.0000     ZZ     -21.4876

 Total job time:  72.01s(wall), 278.34s(cpu)
        *  Thank you very much for using Q-Chem.  Have a nice day.  *
