 Q-Chem 5.4, Q-Chem, Inc., Pleasanton, CA (2021)
 Q-Chem 5.4.2 for Intel X86 EM64T Linux

User input:
--------------------------------------------------------------
$molecule
0 2
C         0.1820095448    0.1967824709    0.9647302636
C         0.1091753528   -0.7875720745    2.1131807251
C        -2.9971311863   -2.3126923535    0.6259978300
C        -2.0311187984   -2.1694014829   -0.4700838162
C        -1.2192718630   -1.1321237432   -0.6752667940
C        -1.1264999023    0.1443024723    0.1212513599
C        -1.0748141209    1.3880910072   -0.9047279387
H         0.2375455186    1.1976884914    1.4105677157
H         1.0645196291   -1.2754610146    2.3613575231
H        -3.0190059254   -1.5440535483    1.4041165463
H        -1.9853446744   -3.0157684345   -1.1452526057
H        -0.5219090528   -1.1996165851   -1.5025525809
H        -1.9785980889    1.3455357024   -1.5068567737
O         0.0858609549    1.3666779324   -1.6952974414
H        -1.0550814279    2.2866214554   -0.2965176627
H        -0.0595791536    0.8075142747   -2.4671841923
O         1.3452997799   -0.1220921546    0.2369161777
H         1.3653102779    0.4553101464   -0.5413076926
O        -0.9000546356   -1.0229367183    2.7308095731
O        -2.1904719771    0.4633868272    0.8786925911
O        -3.7470962514   -3.2736151707    0.6918281927
$end

$rem
BASIS = 6-311++G(2df,2p)
GUI = 2
JOB_TYPE = Frequency
METHOD = wB97M-V
SOLVENT_METHOD = SMD
SCF_ALGORITHM = DIIS_GDM
MAX_SCF_CYCLES = 400
SCF_CONVERGENCE = 7
THRESH = 12
$end
--------------------------------------------------------------

   27    -648.1909623090      3.91e-08  Convergence criterion met
 Total energy in the final basis set =     -648.1807362515
   24    -648.1909647724      6.85e-08  Convergence criterion met
 Total energy in the final basis set =     -648.1807354056
   24    -648.1909582803      7.19e-08  Convergence criterion met
 Total energy in the final basis set =     -648.1807352338
   24    -648.1909608846      7.23e-08  Convergence criterion met
 Total energy in the final basis set =     -648.1807352826
   24    -648.1909618390      7.04e-08  Convergence criterion met
 Total energy in the final basis set =     -648.1807353029
   24    -648.1909591652      6.91e-08  Convergence criterion met
 Total energy in the final basis set =     -648.1807354144
   24    -648.1909637173      6.90e-08  Convergence criterion met
 Total energy in the final basis set =     -648.1807352364
   24    -648.1909592538      7.03e-08  Convergence criterion met
 Total energy in the final basis set =     -648.1807362435
   24    -648.1909658084      7.12e-08  Convergence criterion met
 Total energy in the final basis set =     -648.1807357729
   24    -648.1909637377      6.95e-08  Convergence criterion met
 Total energy in the final basis set =     -648.1807357298
   24    -648.1909597310      6.77e-08  Convergence criterion met
 Total energy in the final basis set =     -648.1807356376
   24    -648.1909636846      6.99e-08  Convergence criterion met
 Total energy in the final basis set =     -648.1807353229
   24    -648.1909591427      6.72e-08  Convergence criterion met
 Total energy in the final basis set =     -648.1807354100
   24    -648.1909618397      6.94e-08  Convergence criterion met
 Total energy in the final basis set =     -648.1807361327
   24    -648.1909625353      6.85e-08  Convergence criterion met
 Total energy in the final basis set =     -648.1807361298

                    Orbital Energies (a.u.)
 --------------------------------------------------------------

 Alpha MOs
 -- Occupied --
-19.3827 -19.3650 -19.3584 -19.3486 -19.3409 -10.4490 -10.4376 -10.4326
-10.4197 -10.4186 -10.3744 -10.3572  -1.2113  -1.1945  -1.1853  -1.1768
 -1.1701  -0.9401  -0.8899  -0.8455  -0.7903  -0.7415  -0.7071  -0.6723
 -0.6598  -0.6345  -0.6248  -0.6107  -0.5896  -0.5779  -0.5697  -0.5575
 -0.5555  -0.5250  -0.5201  -0.5188  -0.5068  -0.4925  -0.4813  -0.4582
 -0.4385  -0.4099  -0.3949  -0.3833  -0.3690  -0.3557

 Beta MOs
 -- Occupied --
-19.3637 -19.3627 -19.3573 -19.3485 -19.3407 -10.4491 -10.4376 -10.4329
-10.4179 -10.4168 -10.3743 -10.3570  -1.2078  -1.1897  -1.1849  -1.1695
 -1.1410  -0.9354  -0.8838  -0.8385  -0.7880  -0.7375  -0.7052  -0.6662
 -0.6550  -0.6323  -0.6193  -0.6044  -0.5859  -0.5728  -0.5659  -0.5520
 -0.5428  -0.5212  -0.5176  -0.5129  -0.5050  -0.4853  -0.4588  -0.4297
 -0.4142  -0.3890  -0.3833  -0.3791  -0.3602

          Ground-State Mulliken Net Atomic Charges

     Atom                 Charge (a.u.)    Spin (a.u.)
  --------------------------------------------------------
      1 C                    -0.018146       0.028517
      2 C                    -0.076844       0.000181
      3 C                    -0.129955       0.003515
      4 C                    -0.284146       0.014484
      5 C                    -0.202214      -0.007837
      6 C                     0.220970       0.027878
      7 C                    -0.277374       0.107541
      8 H                     0.284884      -0.000747
      9 H                     0.214488       0.006204
     10 H                     0.237569      -0.001241
     11 H                     0.288846       0.000883
     12 H                     0.316182      -0.000789
     13 H                     0.260054      -0.001593
     14 O                    -0.331218       0.035993
     15 H                     0.267515      -0.002558
     16 H                     0.350572      -0.000538
     17 O                    -0.407125       0.005680
     18 H                     0.345321      -0.000261
     19 O                    -0.341189       0.026378
     20 O                    -0.275252       0.752347
     21 O                    -0.442939       0.005962
  --------------------------------------------------------
  Sum of atomic charges =     0.000000

                    Cartesian Multipole Moments
 -----------------------------------------------------------------
    Charge (ESU x 10^10)
                 0.0000
    Dipole Moment (Debye)
         X       5.5438      Y       5.2547      Z      -6.4316
       Tot       9.9855
    Quadrupole Moments (Debye-Ang)
        XX     -98.2230     XY     -20.2282     YY     -85.6025
        XZ      14.3544     YZ       7.1762     ZZ     -68.6496

             Standard Nuclear Orientation (Angstroms)
    I     Atom           X                Y                Z
 ----------------------------------------------------------------
    1      C       0.1820095448     0.1967824709     0.9647302636
    2      C       0.1091753528    -0.7875720745     2.1131807251
    3      C      -2.9971311863    -2.3126923535     0.6259978300
    4      C      -2.0311187984    -2.1694014829    -0.4700838162
    5      C      -1.2192718630    -1.1321237432    -0.6752667940
    6      C      -1.1264999023     0.1443024723     0.1212513599
    7      C      -1.0748141209     1.3880910072    -0.9047279387
    8      H       0.2375455186     1.1976884914     1.4105677157
    9      H       1.0645196291    -1.2754610146     2.3613575231
   10      H      -3.0190059254    -1.5440535483     1.4041165463
   11      H      -1.9853446744    -3.0157684345    -1.1452526057
   12      H      -0.5219090528    -1.1996165851    -1.5025525809
   13      H      -1.9785980889     1.3455357024    -1.5068567737
   14      O       0.0858609549     1.3666779324    -1.6952974414
   15      H      -1.0550814279     2.2866214554    -0.2965176627
   16      H      -0.0595791536     0.8075142747    -2.4671841923
   17      O       1.3452997799    -0.1220921546     0.2369161777
   18      H       1.3653102779     0.4553101464    -0.5413076926
   19      O      -0.9000546356    -1.0229367183     2.7308095731
   20      O      -2.1904719771     0.4633868272     0.8786925911
   21      O      -3.7470962514    -3.2736151707     0.6918281927
 ----------------------------------------------------------------

 Frequency:        34.86                  54.58                  81.18
 Force Cnst:      0.0048                 0.0092                 0.0164
 Red. Mass:       6.6830                 5.2410                 4.2227
 IR Intens:        7.196                 20.131                 18.429
 Frequency:       101.93                 139.74                 155.36
 Force Cnst:      0.0249                 0.0430                 0.0655
 Red. Mass:       4.0724                 3.7360                 4.6079
 IR Intens:       10.169                 19.135                 24.754
 Frequency:       184.45                 191.17                 243.61
 Force Cnst:      0.0709                 0.1381                 0.0932
 Red. Mass:       3.5378                 6.4124                 2.6668
 IR Intens:        4.047                  7.423                  8.100
 Frequency:       260.92                 324.52                 347.98
 Force Cnst:      0.2966                 0.3539                 0.3452
 Red. Mass:       7.3953                 5.7040                 4.8383
 IR Intens:       13.396                 24.301                 17.491
 Frequency:       359.17                 416.79                 438.09
 Force Cnst:      0.5280                 0.3875                 0.1279
 Red. Mass:       6.9461                 3.7859                 1.1314
 IR Intens:       18.816                 61.930                292.912
 Frequency:       486.35                 523.03                 534.90
 Force Cnst:      0.5940                 0.2465                 0.3988
 Red. Mass:       4.2623                 1.5295                 2.3658
 IR Intens:       19.936                 81.476                171.524
 Frequency:       555.97                 642.00                 656.08
 Force Cnst:      0.5778                 1.2015                 1.3235
 Red. Mass:       3.1724                 4.9477                 5.2186
 IR Intens:        6.182                  2.282                116.180
 Frequency:       754.48                 791.62                 794.56
 Force Cnst:      1.4865                 0.7497                 1.2619
 Red. Mass:       4.4322                 2.0305                 3.3925
 IR Intens:      219.349                 77.692                 24.020
 Frequency:       882.00                 970.19                1036.35
 Force Cnst:      0.8866                 0.8348                 1.4047
 Red. Mass:       1.9343                 1.5052                 2.2198
 IR Intens:       15.214                 18.994                 70.436
 Frequency:      1039.59                1048.02                1078.82
 Force Cnst:      1.1863                 0.9170                 1.9391
 Red. Mass:       1.8631                 1.4170                 2.8278
 IR Intens:        5.628                 26.565                 13.940
 Frequency:      1100.96                1164.42                1218.29
 Force Cnst:      2.0875                 2.1328                 1.4350
 Red. Mass:       2.9230                 2.6698                 1.6410
 IR Intens:       85.317                318.781                 40.108
 Frequency:      1230.08                1245.97                1260.11
 Force Cnst:      1.6309                 1.1643                 1.2176
 Red. Mass:       1.8294                 1.2729                 1.3015
 IR Intens:       70.903                  8.640                 19.745
 Frequency:      1298.27                1334.13                1361.12
 Force Cnst:      2.1948                 1.9350                 1.3214
 Red. Mass:       2.2101                 1.8452                 1.2106
 IR Intens:      261.815                 58.387                 45.781
 Frequency:      1386.99                1392.72                1398.30
 Force Cnst:      1.3969                 1.4409                 1.3642
 Red. Mass:       1.2324                 1.2608                 1.1842
 IR Intens:       42.358                144.220                 63.411
 Frequency:      1434.20                1452.04                1487.30
 Force Cnst:      1.9833                 1.8460                 1.5047
 Red. Mass:       1.6365                 1.4860                 1.1545
 IR Intens:        8.068                 11.605                 11.789
 Frequency:      1702.71                1721.50                1790.00
 Force Cnst:     16.4293                12.2461                20.3235
 Red. Mass:       9.6180                 7.0134                10.7657
 IR Intens:      315.016                562.862                288.897
 Frequency:      3002.96                3024.54                3069.17
 Force Cnst:      5.7781                 5.8309                 6.0352
 Red. Mass:       1.0875                 1.0819                 1.0874
 IR Intens:       89.436                 25.690                 55.572
 Frequency:      3105.43                3176.12                3181.94
 Force Cnst:      6.0029                 6.4512                 6.6471
 Red. Mass:       1.0565                 1.0854                 1.1143
 IR Intens:       19.681                  2.495                 11.511
 Frequency:      3192.70                3708.48                3820.14
 Force Cnst:      6.5783                 8.6392                 9.1730
 Red. Mass:       1.0953                 1.0662                 1.0668
 IR Intens:        5.426                372.909                191.532

 STANDARD THERMODYNAMIC QUANTITIES AT   298.15 K  AND     1.00 ATM

   This Molecule has  0 Imaginary Frequencies
   Zero point vibrational energy:       99.196 kcal/mol

   Atom    1 Element C  Has Mass   12.00000
   Atom    2 Element C  Has Mass   12.00000
   Atom    3 Element C  Has Mass   12.00000
   Atom    4 Element C  Has Mass   12.00000
   Atom    5 Element C  Has Mass   12.00000
   Atom    6 Element C  Has Mass   12.00000
   Atom    7 Element C  Has Mass   12.00000
   Atom    8 Element H  Has Mass    1.00783
   Atom    9 Element H  Has Mass    1.00783
   Atom   10 Element H  Has Mass    1.00783
   Atom   11 Element H  Has Mass    1.00783
   Atom   12 Element H  Has Mass    1.00783
   Atom   13 Element H  Has Mass    1.00783
   Atom   14 Element O  Has Mass   15.99491
   Atom   15 Element H  Has Mass    1.00783
   Atom   16 Element H  Has Mass    1.00783
   Atom   17 Element O  Has Mass   15.99491
   Atom   18 Element H  Has Mass    1.00783
   Atom   19 Element O  Has Mass   15.99491
   Atom   20 Element O  Has Mass   15.99491
   Atom   21 Element O  Has Mass   15.99491
   Molecular Mass:   173.045020 amu
   Principal axes and moments of inertia in amu*Bohr^2:
                             1           2           3
    Eigenvalues --     1365.57218  2555.09055  3143.63601
          X               0.65966     0.45963    -0.59463
          Y               0.70382    -0.10029     0.70327
          Z              -0.26360     0.88243     0.38965
   Rotational Symmetry Number is   1
   The Molecule is an Asymmetric Top
   Translational Enthalpy:        0.889 kcal/mol
   Rotational Enthalpy:           0.889 kcal/mol
   Vibrational Enthalpy:        105.495 kcal/mol
   gas constant (RT):             0.592 kcal/mol
   Translational Entropy:        41.352  cal/mol.K
   Rotational Entropy:           30.773  cal/mol.K
   Vibrational Entropy:          40.941  cal/mol.K

   Total Enthalpy:              107.865 kcal/mol
   Total Entropy:               113.067  cal/mol.K
 Total job time:  28357.60s(wall), 407216.04s(cpu)
        *  Thank you very much for using Q-Chem.  Have a nice day.  *
