 Q-Chem 5.4, Q-Chem, Inc., Pleasanton, CA (2021)
 Q-Chem 5.4.1 for Intel X86 EM64T Linux

User input:
--------------------------------------------------------------
$molecule
0 2
C         0.2048308176    0.1989385979    0.9466775295
C         0.1259087446   -0.7906902606    2.0924191477
C        -3.0395165191   -2.3127851323    0.6194184976
C        -2.0395757662   -2.1716481471   -0.4547949475
C        -1.2175534998   -1.1342485154   -0.6590947610
C        -1.1199088002    0.1551411541    0.1219196032
C        -1.0761796018    1.3883896346   -0.8920377876
H         0.2724921387    1.2037541078    1.3963315799
H         1.0954210071   -1.2171453025    2.4067584509
H        -3.1410927402   -1.4980259909    1.3485108787
H        -1.9745234238   -3.0336104685   -1.1160535227
H        -0.5001956076   -1.2191947032   -1.4738600377
H        -1.9768886986    1.3490111644   -1.5091221887
O         0.0967405045    1.3877963758   -1.6762391265
H        -1.0714234550    2.2958829467   -0.2868245949
H        -0.0380105845    0.7963875460   -2.4356622457
O         1.3500187944   -0.1301934458    0.1952881826
H         1.3431303341    0.4781635703   -0.5714221550
O        -0.9115055520   -1.0914661023    2.6451122508
O        -2.1665324789    0.4613895402    0.9281457586
O        -3.7318916133   -3.3192690689    0.7089304878
$end

$rem
BASIS = 6-311++G(2df,2p)
GUI = 2
JOB_TYPE = Optimization
METHOD = wB97M-V
SCF_ALGORITHM = DIIS_GDM
MAX_SCF_CYCLES = 400
GEOM_OPT_MAX_CYCLES = 150
SCF_CONVERGENCE = 7
THRESH = 12
Solvent_method = SMD
$end
--------------------------------------------------------------

   27    -648.1899893662      6.28e-08  Convergence criterion met
 Total energy in the final basis set =     -648.1799710941
   24    -648.1904983229      6.93e-08  Convergence criterion met
 Total energy in the final basis set =     -648.1803434649
   24    -648.1904233589      8.78e-08  Convergence criterion met
 Total energy in the final basis set =     -648.1803042469
   25    -648.1907986399      7.07e-08  Convergence criterion met
 Total energy in the final basis set =     -648.1806655960
   24    -648.1904912372      8.56e-08  Convergence criterion met
 Total energy in the final basis set =     -648.1803637897
   24    -648.1908443084      6.12e-08  Convergence criterion met
 Total energy in the final basis set =     -648.1806930981
   24    -648.1908234497      9.10e-08  Convergence criterion met
 Total energy in the final basis set =     -648.1806481735
   24    -648.1908829090      7.17e-08  Convergence criterion met
 Total energy in the final basis set =     -648.1807079657
   24    -648.1907824494      6.75e-08  Convergence criterion met
 Total energy in the final basis set =     -648.1806193327
   24    -648.1909116778      7.54e-08  Convergence criterion met
 Total energy in the final basis set =     -648.1807234529
   24    -648.1909189107      7.94e-08  Convergence criterion met
 Total energy in the final basis set =     -648.1807274484
   24    -648.1909501391      8.13e-08  Convergence criterion met
 Total energy in the final basis set =     -648.1807336425
   24    -648.1909599274      7.43e-08  Convergence criterion met
 Total energy in the final basis set =     -648.1807353765

             Standard Nuclear Orientation (Angstroms)
    I     Atom           X                Y                Z
 ----------------------------------------------------------------
    1      C       0.1820095448     0.1967824709     0.9647302636
    2      C       0.1091753528    -0.7875720745     2.1131807251
    3      C      -2.9971311863    -2.3126923535     0.6259978300
    4      C      -2.0311187984    -2.1694014829    -0.4700838162
    5      C      -1.2192718630    -1.1321237432    -0.6752667940
    6      C      -1.1264999023     0.1443024723     0.1212513599
    7      C      -1.0748141209     1.3880910072    -0.9047279387
    8      H       0.2375455186     1.1976884914     1.4105677157
    9      H       1.0645196291    -1.2754610146     2.3613575231
   10      H      -3.0190059254    -1.5440535483     1.4041165463
   11      H      -1.9853446744    -3.0157684345    -1.1452526057
   12      H      -0.5219090528    -1.1996165851    -1.5025525809
   13      H      -1.9785980889     1.3455357024    -1.5068567737
   14      O       0.0858609549     1.3666779324    -1.6952974414
   15      H      -1.0550814279     2.2866214554    -0.2965176627
   16      H      -0.0595791536     0.8075142747    -2.4671841923
   17      O       1.3452997799    -0.1220921546     0.2369161777
   18      H       1.3653102779     0.4553101464    -0.5413076926
   19      O      -0.9000546356    -1.0229367183     2.7308095731
   20      O      -2.1904719771     0.4633868272     0.8786925911
   21      O      -3.7470962514    -3.2736151707     0.6918281927
 ----------------------------------------------------------------

   24    -648.1909623094      7.08e-08  Convergence criterion met
 Total energy in the final basis set =     -648.1807362519
 Final energy is   -648.180736251864
 **  OPTIMIZATION CONVERGED  **

                    Orbital Energies (a.u.)
 --------------------------------------------------------------

 Alpha MOs
 -- Occupied --
-19.3827 -19.3650 -19.3584 -19.3486 -19.3409 -10.4490 -10.4376 -10.4326
-10.4197 -10.4186 -10.3744 -10.3572  -1.2113  -1.1945  -1.1853  -1.1768
 -1.1701  -0.9401  -0.8899  -0.8455  -0.7904  -0.7415  -0.7071  -0.6723
 -0.6598  -0.6345  -0.6248  -0.6107  -0.5897  -0.5779  -0.5697  -0.5575
 -0.5555  -0.5250  -0.5201  -0.5188  -0.5068  -0.4926  -0.4813  -0.4582
 -0.4385  -0.4099  -0.3949  -0.3833  -0.3690  -0.3557

 Beta MOs
 -- Occupied --
-19.3637 -19.3628 -19.3573 -19.3485 -19.3407 -10.4491 -10.4376 -10.4329
-10.4179 -10.4168 -10.3743 -10.3570  -1.2078  -1.1897  -1.1849  -1.1695
 -1.1410  -0.9355  -0.8838  -0.8386  -0.7880  -0.7375  -0.7052  -0.6662
 -0.6550  -0.6323  -0.6193  -0.6044  -0.5859  -0.5728  -0.5659  -0.5520
 -0.5428  -0.5212  -0.5176  -0.5129  -0.5050  -0.4853  -0.4588  -0.4297
 -0.4142  -0.3890  -0.3833  -0.3791  -0.3602

          Ground-State Mulliken Net Atomic Charges

     Atom                 Charge (a.u.)    Spin (a.u.)
  --------------------------------------------------------
      1 C                    -0.018142       0.028504
      2 C                    -0.076859       0.000181
      3 C                    -0.130191       0.003521
      4 C                    -0.283827       0.014482
      5 C                    -0.202321      -0.007832
      6 C                     0.221024       0.027877
      7 C                    -0.277376       0.107534
      8 H                     0.284883      -0.000746
      9 H                     0.214485       0.006202
     10 H                     0.237549      -0.001241
     11 H                     0.288871       0.000885
     12 H                     0.316195      -0.000789
     13 H                     0.260051      -0.001593
     14 O                    -0.331223       0.035991
     15 H                     0.267518      -0.002558
     16 H                     0.350572      -0.000538
     17 O                    -0.407128       0.005677
     18 H                     0.345322      -0.000261
     19 O                    -0.341182       0.026374
     20 O                    -0.275238       0.752360
     21 O                    -0.442985       0.005968
  --------------------------------------------------------
  Sum of atomic charges =     0.000000

                    Cartesian Multipole Moments
 -----------------------------------------------------------------
    Charge (ESU x 10^10)
                 0.0000
    Dipole Moment (Debye)
         X       5.5446      Y       5.2552      Z      -6.4349
       Tot       9.9884
    Quadrupole Moments (Debye-Ang)
        XX     -98.2259     XY     -20.2305     YY     -85.6047
        XZ      14.3651     YZ       7.1855     ZZ     -68.6530

 Total job time:  5359.20s(wall), 75821.75s(cpu)
        *  Thank you very much for using Q-Chem.  Have a nice day.  *
