 Q-Chem 5.4, Q-Chem, Inc., Pleasanton, CA (2021)
 Q-Chem 5.4.1 for Intel X86 EM64T Linux

User input:
--------------------------------------------------------------
$molecule
0 2
C         2.4200687798   -0.9790920545   -0.9215201904
O         1.1894954774   -0.6310284867   -0.3364635883
C         3.5099240149   -0.5590161174    0.0731646840
O         3.4691958427   -1.4388063794    1.1486151357
C         3.3288892639    0.9015954964    0.4763969840
O         4.5315944667    1.4205087648    1.0903126444
O         4.7949987196    0.8225013447    2.2203492668
H         2.5653014436   -0.4572620950   -1.8647448283
H         0.5134035831   -0.6553808589   -1.0232298307
H         2.5131001386    1.0010085408    1.1855068429
H         3.1676008269    1.5391252468   -0.3870791947
O         2.5035408365   -2.3493948663   -1.2096186970
H         2.4917489919   -2.8365485078   -0.3745673766
O         4.8053734977   -0.7846505609   -0.5022874195
O         4.9755281516    0.0808429593   -1.6235385318
H         3.9212700478   -1.0301944876    1.9016960222
H         5.5669974174    0.7618857620   -1.2691441228
$end

$rem
BASIS = 6-311++G(2df,2p)
GUI = 2
JOB_TYPE = Frequency
METHOD = wB97M-V
SOLVENT_METHOD = SMD
SCF_ALGORITHM = DIIS_GDM
MAX_SCF_CYCLES = 400
SCF_CONVERGENCE = 7
THRESH = 12
$end
--------------------------------------------------------------

   22    -644.9408056553      3.34e-08  Convergence criterion met
 Total energy in the final basis set =     -644.9363909057
   19    -644.9408012238      6.00e-08  Convergence criterion met
 Total energy in the final basis set =     -644.9363898778
   19    -644.9408083560      6.01e-08  Convergence criterion met
 Total energy in the final basis set =     -644.9363899064
   19    -644.9407991906      6.03e-08  Convergence criterion met
 Total energy in the final basis set =     -644.9363897590
   19    -644.9408103212      5.98e-08  Convergence criterion met
 Total energy in the final basis set =     -644.9363898349
   19    -644.9408042953      6.02e-08  Convergence criterion met
 Total energy in the final basis set =     -644.9363897750
   19    -644.9408047609      6.01e-08  Convergence criterion met
 Total energy in the final basis set =     -644.9363896962
   19    -644.9408089131      6.01e-08  Convergence criterion met
 Total energy in the final basis set =     -644.9363902849
   19    -644.9408043546      5.97e-08  Convergence criterion met
 Total energy in the final basis set =     -644.9363903401
   19    -644.9408060559      6.02e-08  Convergence criterion met
 Total energy in the final basis set =     -644.9363905634
   19    -644.9408045633      6.01e-08  Convergence criterion met
 Total energy in the final basis set =     -644.9363905568
   19    -644.9408056661      6.01e-08  Convergence criterion met
 Total energy in the final basis set =     -644.9363904321
   19    -644.9408047058      6.01e-08  Convergence criterion met
 Total energy in the final basis set =     -644.9363904407
   19    -644.9408051129      6.00e-08  Convergence criterion met
 Total energy in the final basis set =     -644.9363907194
   19    -644.9408057513      6.03e-08  Convergence criterion met
 Total energy in the final basis set =     -644.9363906450

                    Orbital Energies (a.u.)
 --------------------------------------------------------------

 Alpha MOs
 -- Occupied --
-19.4746 -19.4257 -19.4106 -19.4017 -19.3634 -19.3515 -19.3498 -10.4744
-10.4533 -10.4098  -1.3543  -1.2846  -1.2161  -1.1875  -1.1414  -1.0478
 -1.0273  -0.8846  -0.8109  -0.7458  -0.7004  -0.6732  -0.6615  -0.6516
 -0.6353  -0.6227  -0.5871  -0.5814  -0.5745  -0.5600  -0.5332  -0.5096
 -0.4902  -0.4667  -0.4547  -0.4379  -0.4212  -0.4181  -0.4136  -0.4054
 -0.3858

 Beta MOs
 -- Occupied --
-19.4640 -19.4106 -19.4072 -19.4017 -19.3633 -19.3515 -19.3498 -10.4741
-10.4533 -10.4102  -1.3286  -1.2840  -1.2160  -1.1873  -1.1413  -1.0461
 -0.9980  -0.8790  -0.8035  -0.7444  -0.6976  -0.6614  -0.6589  -0.6423
 -0.6218  -0.6091  -0.5820  -0.5751  -0.5573  -0.5454  -0.5323  -0.4914
 -0.4861  -0.4618  -0.4528  -0.4371  -0.4180  -0.4127  -0.4018  -0.3877

          Ground-State Mulliken Net Atomic Charges

     Atom                 Charge (a.u.)    Spin (a.u.)
  --------------------------------------------------------
      1 C                    -0.111893       0.004032
      2 O                    -0.415106       0.000246
      3 C                     0.180074      -0.002204
      4 O                    -0.379676       0.003454
      5 C                    -0.511173       0.005039
      6 O                     0.082282       0.318604
      7 O                    -0.217571       0.661321
      8 H                     0.299462       0.000191
      9 H                     0.341124      -0.000024
     10 H                     0.298823       0.008631
     11 H                     0.307329       0.000870
     12 O                    -0.448205       0.000461
     13 H                     0.351434       0.000065
     14 O                    -0.167584      -0.001647
     15 O                    -0.277852       0.001696
     16 H                     0.326457      -0.001371
     17 H                     0.342076       0.000636
  --------------------------------------------------------
  Sum of atomic charges =     0.000000

                    Cartesian Multipole Moments
 -----------------------------------------------------------------
    Charge (ESU x 10^10)
                 0.0000
    Dipole Moment (Debye)
         X      -2.4034      Y       3.9970      Z      -0.6854
       Tot       4.7140
    Quadrupole Moments (Debye-Ang)
        XX     -72.1568     XY      15.3450     YY     -61.1787
        XZ      -0.4533     YZ      -7.8484     ZZ     -61.7340

             Standard Nuclear Orientation (Angstroms)
    I     Atom           X                Y                Z
 ----------------------------------------------------------------
    1      C       2.4200687798    -0.9790920545    -0.9215201904
    2      O       1.1894954774    -0.6310284867    -0.3364635883
    3      C       3.5099240149    -0.5590161174     0.0731646840
    4      O       3.4691958427    -1.4388063794     1.1486151357
    5      C       3.3288892639     0.9015954964     0.4763969840
    6      O       4.5315944667     1.4205087648     1.0903126444
    7      O       4.7949987196     0.8225013447     2.2203492668
    8      H       2.5653014436    -0.4572620950    -1.8647448283
    9      H       0.5134035831    -0.6553808589    -1.0232298307
   10      H       2.5131001386     1.0010085408     1.1855068429
   11      H       3.1676008269     1.5391252468    -0.3870791947
   12      O       2.5035408365    -2.3493948663    -1.2096186970
   13      H       2.4917489919    -2.8365485078    -0.3745673766
   14      O       4.8053734977    -0.7846505609    -0.5022874195
   15      O       4.9755281516     0.0808429593    -1.6235385318
   16      H       3.9212700478    -1.0301944876     1.9016960222
   17      H       5.5669974174     0.7618857620    -1.2691441228
 ----------------------------------------------------------------

 Frequency:        62.85                  80.01                 127.37
 Force Cnst:      0.0224                 0.0253                 0.0657
 Red. Mass:       9.6360                 6.7141                 6.8735
 IR Intens:        3.042                  0.964                 14.356
 Frequency:       151.23                 173.88                 257.68
 Force Cnst:      0.0685                 0.1656                 0.1713
 Red. Mass:       5.0869                 9.2967                 4.3778
 IR Intens:        4.966                  2.305                 19.103
 Frequency:       267.06                 293.65                 307.55
 Force Cnst:      0.1654                 0.1063                 0.1214
 Red. Mass:       3.9351                 2.0933                 2.1792
 IR Intens:        7.151                136.804                130.925
 Frequency:       336.62                 367.70                 372.75
 Force Cnst:      0.1337                 0.1628                 0.1838
 Red. Mass:       2.0031                 2.0444                 2.2451
 IR Intens:      100.382                128.141                 52.454
 Frequency:       409.81                 411.80                 500.81
 Force Cnst:      0.1169                 0.1231                 0.8151
 Red. Mass:       1.1812                 1.2324                 5.5162
 IR Intens:      256.543                 47.557                 38.691
 Frequency:       510.36                 530.40                 606.47
 Force Cnst:      0.6124                 0.9011                 1.0681
 Red. Mass:       3.9902                 5.4364                 4.9289
 IR Intens:       77.544                 21.552                 49.794
 Frequency:       742.51                 817.91                 920.12
 Force Cnst:      1.4628                 1.6969                 1.7638
 Red. Mass:       4.5033                 4.3053                 3.5360
 IR Intens:       31.859                 82.071                 47.698
 Frequency:       980.06                1022.61                1056.51
 Force Cnst:      1.7871                 5.0105                 1.8895
 Red. Mass:       3.1579                 8.1322                 2.8731
 IR Intens:       57.424                  6.461                 47.453
 Frequency:      1104.48                1174.10                1223.40
 Force Cnst:      2.2201                 1.6754                 1.1860
 Red. Mass:       3.0889                 2.0628                 1.3449
 IR Intens:      250.205                158.868                 47.486
 Frequency:      1239.60                1266.04                1274.92
 Force Cnst:      2.3195                 2.2442                 2.4550
 Red. Mass:       2.5620                 2.3764                 2.5635
 IR Intens:       27.999                128.895                352.106
 Frequency:      1298.95                1336.26                1365.85
 Force Cnst:      1.9690                 2.3461                 1.7143
 Red. Mass:       1.9807                 2.2301                 1.5596
 IR Intens:       98.829                 87.568                  9.480
 Frequency:      1410.20                1422.32                1440.35
 Force Cnst:      1.7373                 1.3440                 1.5675
 Red. Mass:       1.4827                 1.1276                 1.2824
 IR Intens:       45.605                 91.635                 88.262
 Frequency:      1448.02                1482.60                3131.72
 Force Cnst:      1.3608                 2.5058                 6.1564
 Red. Mass:       1.1015                 1.9349                 1.0654
 IR Intens:        8.472                 43.389                  7.052
 Frequency:      3132.93                3199.77                3729.15
 Force Cnst:      6.2505                 6.7024                 8.7375
 Red. Mass:       1.0809                 1.1111                 1.0664
 IR Intens:       15.312                  0.139                249.977
 Frequency:      3756.41                3781.31                3823.02
 Force Cnst:      8.8830                 8.9779                 9.1859
 Red. Mass:       1.0685                 1.0657                 1.0667
 IR Intens:      148.334                130.117                153.215

 STANDARD THERMODYNAMIC QUANTITIES AT   298.15 K  AND     1.00 ATM

   This Molecule has  0 Imaginary Frequencies
   Zero point vibrational energy:       77.696 kcal/mol

   Atom    1 Element C  Has Mass   12.00000
   Atom    2 Element O  Has Mass   15.99491
   Atom    3 Element C  Has Mass   12.00000
   Atom    4 Element O  Has Mass   15.99491
   Atom    5 Element C  Has Mass   12.00000
   Atom    6 Element O  Has Mass   15.99491
   Atom    7 Element O  Has Mass   15.99491
   Atom    8 Element H  Has Mass    1.00783
   Atom    9 Element H  Has Mass    1.00783
   Atom   10 Element H  Has Mass    1.00783
   Atom   11 Element H  Has Mass    1.00783
   Atom   12 Element O  Has Mass   15.99491
   Atom   13 Element H  Has Mass    1.00783
   Atom   14 Element O  Has Mass   15.99491
   Atom   15 Element O  Has Mass   15.99491
   Atom   16 Element H  Has Mass    1.00783
   Atom   17 Element H  Has Mass    1.00783
   Molecular Mass:   155.019180 amu
   Principal axes and moments of inertia in amu*Bohr^2:
                             1           2           3
    Eigenvalues --      919.21038  1734.56331  2002.22746
          X               0.60437    -0.68755    -0.40252
          Y               0.59775     0.05729     0.79963
          Z               0.52672     0.72388    -0.44561
   Rotational Symmetry Number is   1
   The Molecule is an Asymmetric Top
   Translational Enthalpy:        0.889 kcal/mol
   Rotational Enthalpy:           0.889 kcal/mol
   Vibrational Enthalpy:         82.855 kcal/mol
   gas constant (RT):             0.592 kcal/mol
   Translational Entropy:        41.025  cal/mol.K
   Rotational Entropy:           29.547  cal/mol.K
   Vibrational Entropy:          31.191  cal/mol.K

   Total Enthalpy:               85.225 kcal/mol
   Total Entropy:               101.763  cal/mol.K
 Total job time:  19430.07s(wall), 274681.27s(cpu)
        *  Thank you very much for using Q-Chem.  Have a nice day.  *
