 Q-Chem 5.4, Q-Chem, Inc., Pleasanton, CA (2021)
 Q-Chem 5.4.1 for Intel X86 EM64T Linux

User input:
--------------------------------------------------------------
$molecule
0 2
C         2.4134618429   -0.9816095159   -0.9323145199
O         1.1844915008   -0.6140234913   -0.3515560098
C         3.4963225047   -0.5537563593    0.0666450376
O         3.4334802012   -1.4317673094    1.1472418299
C         3.3204554878    0.9100269276    0.4733637261
O         4.5320764549    1.4262764581    1.0837109321
O         4.8588358595    0.7429488274    2.1568686817
H         2.5700115077   -0.4790554655   -1.8901203685
H         0.5046862387   -0.7048920227   -1.0397482224
H         2.5061034527    1.0102335259    1.1912184628
H         3.1582367660    1.5597952390   -0.3862715276
O         2.4988784540   -2.3587994355   -1.1910893219
H         2.4969172613   -2.8036045863   -0.3238461444
O         4.7987498166   -0.7847761917   -0.4911382322
O         4.9810895458    0.1108684257   -1.5984568060
H         3.9428196719   -1.0237107360    1.8746010707
H         5.5714149337    0.7819394102   -1.2052607881
$end

$rem
BASIS = 6-311++G(2df,2p)
GUI = 2
JOB_TYPE = Optimization
METHOD = wB97M-V
SCF_ALGORITHM = DIIS_GDM
MAX_SCF_CYCLES = 400
GEOM_OPT_MAX_CYCLES = 150
SCF_CONVERGENCE = 7
THRESH = 12
Solvent_method = SMD
$end
--------------------------------------------------------------

   22    -644.9399071524      3.95e-08  Convergence criterion met
 Total energy in the final basis set =     -644.9355925151
   20    -644.9404840491      6.21e-08  Convergence criterion met
 Total energy in the final basis set =     -644.9360413409
   20    -644.9404180911      5.05e-08  Convergence criterion met
 Total energy in the final basis set =     -644.9360500112
   19    -644.9407607404      8.16e-08  Convergence criterion met
 Total energy in the final basis set =     -644.9363418857
   20    -644.9407637645      5.21e-08  Convergence criterion met
 Total energy in the final basis set =     -644.9363479207
   19    -644.9407946028      8.23e-08  Convergence criterion met
 Total energy in the final basis set =     -644.9363824629
   19    -644.9408014286      3.86e-08  Convergence criterion met
 Total energy in the final basis set =     -644.9363872225
   19    -644.9408050739      7.18e-08  Convergence criterion met
 Total energy in the final basis set =     -644.9363905242

             Standard Nuclear Orientation (Angstroms)
    I     Atom           X                Y                Z
 ----------------------------------------------------------------
    1      C       2.4200687798    -0.9790920545    -0.9215201904
    2      O       1.1894954774    -0.6310284867    -0.3364635883
    3      C       3.5099240149    -0.5590161174     0.0731646840
    4      O       3.4691958427    -1.4388063794     1.1486151357
    5      C       3.3288892639     0.9015954964     0.4763969840
    6      O       4.5315944667     1.4205087648     1.0903126444
    7      O       4.7949987196     0.8225013447     2.2203492668
    8      H       2.5653014436    -0.4572620950    -1.8647448283
    9      H       0.5134035831    -0.6553808589    -1.0232298307
   10      H       2.5131001386     1.0010085408     1.1855068429
   11      H       3.1676008269     1.5391252468    -0.3870791947
   12      O       2.5035408365    -2.3493948663    -1.2096186970
   13      H       2.4917489919    -2.8365485078    -0.3745673766
   14      O       4.8053734977    -0.7846505609    -0.5022874195
   15      O       4.9755281516     0.0808429593    -1.6235385318
   16      H       3.9212700478    -1.0301944876     1.9016960222
   17      H       5.5669974174     0.7618857620    -1.2691441228
 ----------------------------------------------------------------

   19    -644.9408056548      4.24e-08  Convergence criterion met
 Total energy in the final basis set =     -644.9363909052
 Final energy is   -644.936390905226
 **  OPTIMIZATION CONVERGED  **

                    Orbital Energies (a.u.)
 --------------------------------------------------------------

 Alpha MOs
 -- Occupied --
-19.4746 -19.4257 -19.4106 -19.4018 -19.3634 -19.3515 -19.3498 -10.4744
-10.4533 -10.4098  -1.3544  -1.2846  -1.2161  -1.1875  -1.1414  -1.0477
 -1.0273  -0.8846  -0.8109  -0.7458  -0.7003  -0.6732  -0.6615  -0.6516
 -0.6353  -0.6227  -0.5871  -0.5814  -0.5746  -0.5600  -0.5332  -0.5096
 -0.4902  -0.4667  -0.4547  -0.4379  -0.4212  -0.4181  -0.4136  -0.4054
 -0.3858

 Beta MOs
 -- Occupied --
-19.4640 -19.4106 -19.4072 -19.4017 -19.3633 -19.3515 -19.3498 -10.4741
-10.4533 -10.4102  -1.3286  -1.2840  -1.2160  -1.1873  -1.1413  -1.0460
 -0.9980  -0.8790  -0.8035  -0.7444  -0.6976  -0.6614  -0.6589  -0.6423
 -0.6218  -0.6091  -0.5820  -0.5751  -0.5573  -0.5455  -0.5323  -0.4914
 -0.4861  -0.4618  -0.4528  -0.4371  -0.4179  -0.4127  -0.4018  -0.3877

          Ground-State Mulliken Net Atomic Charges

     Atom                 Charge (a.u.)    Spin (a.u.)
  --------------------------------------------------------
      1 C                    -0.111835       0.004030
      2 O                    -0.415108       0.000247
      3 C                     0.180169      -0.002201
      4 O                    -0.379675       0.003454
      5 C                    -0.511346       0.005040
      6 O                     0.082295       0.318591
      7 O                    -0.217545       0.661330
      8 H                     0.299454       0.000191
      9 H                     0.341126      -0.000024
     10 H                     0.298820       0.008631
     11 H                     0.307359       0.000870
     12 O                    -0.448208       0.000461
     13 H                     0.351435       0.000065
     14 O                    -0.167724      -0.001646
     15 O                    -0.277819       0.001696
     16 H                     0.326452      -0.001371
     17 H                     0.342148       0.000637
  --------------------------------------------------------
  Sum of atomic charges =     0.000000

                    Cartesian Multipole Moments
 -----------------------------------------------------------------
    Charge (ESU x 10^10)
                 0.0000
    Dipole Moment (Debye)
         X      -2.4036      Y       3.9970      Z      -0.6841
       Tot       4.7139
    Quadrupole Moments (Debye-Ang)
        XX     -72.1593     XY      15.3446     YY     -61.1794
        XZ      -0.4446     YZ      -7.8459     ZZ     -61.7369

 Total job time:  1582.50s(wall), 22211.60s(cpu)
        *  Thank you very much for using Q-Chem.  Have a nice day.  *
