 Q-Chem 5.4, Q-Chem, Inc., Pleasanton, CA (2021)
 Q-Chem 5.4.1 for Intel X86 EM64T Linux

User input:
--------------------------------------------------------------
$molecule
0 1
O    5.3553525    1.0751051    3.5189426
O    4.1226244    0.8278882    4.1993936
C    4.3442397    1.0398193    5.5787294
O    4.4676786    2.4004135    5.8955078
H    3.4384076    0.6613776    6.0462678
H    5.2230884    0.4785626    5.8933545
H    5.3793334    2.6709720    5.7392102
H    5.2827491    2.0123188    3.2853665
$end

$rem
BASIS = 6-311++G(2df,2p)
GUI = 2
JOB_TYPE = Frequency
METHOD = wB97M-V
SOLVENT_METHOD = SMD
SCF_ALGORITHM = DIIS_GDM
MAX_SCF_CYCLES = 400
SCF_CONVERGENCE = 7
THRESH = 12
$end
--------------------------------------------------------------

   13    -266.1114201914      9.24e-08  Convergence criterion met
 Total energy in the final basis set =     -266.1078418925
   12    -266.1114196368      7.25e-08  Convergence criterion met
 Total energy in the final basis set =     -266.1078416492
   12    -266.1114198399      6.82e-08  Convergence criterion met
 Total energy in the final basis set =     -266.1078412293
   12    -266.1114187596      7.22e-08  Convergence criterion met
 Total energy in the final basis set =     -266.1078409161
   12    -266.1114197238      6.98e-08  Convergence criterion met
 Total energy in the final basis set =     -266.1078409699
   12    -266.1114201352      7.23e-08  Convergence criterion met
 Total energy in the final basis set =     -266.1078415452
   12    -266.1114197022      6.90e-08  Convergence criterion met
 Total energy in the final basis set =     -266.1078416941
   12    -266.1114200893      7.04e-08  Convergence criterion met
 Total energy in the final basis set =     -266.1078418589
   12    -266.1114197174      7.07e-08  Convergence criterion met
 Total energy in the final basis set =     -266.1078418544
   12    -266.1114202883      7.08e-08  Convergence criterion met
 Total energy in the final basis set =     -266.1078418030
   12    -266.1114198927      7.15e-08  Convergence criterion met
 Total energy in the final basis set =     -266.1078417797
   12    -266.1114198189      6.95e-08  Convergence criterion met
 Total energy in the final basis set =     -266.1078410005
   12    -266.1114188701      7.24e-08  Convergence criterion met
 Total energy in the final basis set =     -266.1078410911
   12    -266.1114192836      7.04e-08  Convergence criterion met
 Total energy in the final basis set =     -266.1078417788
   12    -266.1114209295      6.98e-08  Convergence criterion met
 Total energy in the final basis set =     -266.1078418363

                    Orbital Energies (a.u.)
 --------------------------------------------------------------

 Alpha MOs
 -- Occupied --
-19.4038 -19.3954 -19.3487 -10.4374  -1.2751  -1.1696  -1.0438  -0.7895
 -0.6627  -0.6495  -0.6052  -0.5741  -0.5141  -0.4718  -0.4386  -0.4104
 -0.4053

          Ground-State Mulliken Net Atomic Charges

     Atom                 Charge (a.u.)
  ----------------------------------------
      1 O                    -0.346618
      2 O                    -0.154438
      3 C                    -0.136061
      4 O                    -0.449948
      5 H                     0.184854
      6 H                     0.214975
      7 H                     0.339352
      8 H                     0.347884
  ----------------------------------------
  Sum of atomic charges =     0.000000

                    Cartesian Multipole Moments
 -----------------------------------------------------------------
    Charge (ESU x 10^10)
                 0.0000
    Dipole Moment (Debye)
         X       1.9204      Y       1.1779      Z       0.9908
       Tot       2.4612
    Quadrupole Moments (Debye-Ang)
        XX      -5.5839     XY      12.2411     YY     -20.9018
        XZ      14.2572     YZ       1.0359     ZZ     -15.3495

             Standard Nuclear Orientation (Angstroms)
    I     Atom           X                Y                Z
 ----------------------------------------------------------------
    1      O       5.3553525000     1.0751051000     3.5189426000
    2      O       4.1226244000     0.8278882000     4.1993936000
    3      C       4.3442397000     1.0398193000     5.5787294000
    4      O       4.4676786000     2.4004135000     5.8955078000
    5      H       3.4384076000     0.6613776000     6.0462678000
    6      H       5.2230884000     0.4785626000     5.8933545000
    7      H       5.3793334000     2.6709720000     5.7392102000
    8      H       5.2827491000     2.0123188000     3.2853665000
 ----------------------------------------------------------------

 Frequency:       174.91                 293.50                 329.18
 Force Cnst:      0.0813                 0.0579                 0.0707
 Red. Mass:       4.5126                 1.1405                 1.1070
 IR Intens:       19.542                394.851                 40.073
 Frequency:       437.97                 613.69                 942.32
 Force Cnst:      0.3162                 1.3128                 2.3259
 Red. Mass:       2.7978                 5.9161                 4.4457
 IR Intens:       28.786                 16.857                 30.338
 Frequency:      1057.21                1182.04                1236.68
 Force Cnst:      0.9635                 4.0540                 3.4141
 Red. Mass:       1.4632                 4.9246                 3.7889
 IR Intens:       58.844                 67.160                316.784
 Frequency:      1301.07                1385.32                1406.90
 Force Cnst:      1.3492                 1.3504                 1.3059
 Red. Mass:       1.3528                 1.1943                 1.1198
 IR Intens:       17.751                 28.095                 69.359
 Frequency:      1437.49                1479.40                3085.85
 Force Cnst:      1.5789                 1.4824                 5.9435
 Red. Mass:       1.2968                 1.1496                 1.0593
 IR Intens:       87.161                 16.969                 47.051
 Frequency:      3163.33                3760.72                3823.60
 Force Cnst:      6.5495                 8.9027                 9.1882
 Red. Mass:       1.1109                 1.0684                 1.0667
 IR Intens:       16.054                123.478                135.467

 STANDARD THERMODYNAMIC QUANTITIES AT   298.15 K  AND     1.00 ATM

   This Molecule has  0 Imaginary Frequencies
   Zero point vibrational energy:       38.757 kcal/mol

   Atom    1 Element O  Has Mass   15.99491
   Atom    2 Element O  Has Mass   15.99491
   Atom    3 Element C  Has Mass   12.00000
   Atom    4 Element O  Has Mass   15.99491
   Atom    5 Element H  Has Mass    1.00783
   Atom    6 Element H  Has Mass    1.00783
   Atom    7 Element H  Has Mass    1.00783
   Atom    8 Element H  Has Mass    1.00783
   Molecular Mass:    64.016050 amu
   Principal axes and moments of inertia in amu*Bohr^2:
                             1           2           3
    Eigenvalues --      102.87701   307.65475   367.28855
          X              -0.22487     0.64139     0.73352
          Y               0.41058     0.74508    -0.52563
          Z               0.88366    -0.18297     0.43089
   Rotational Symmetry Number is   1
   The Molecule is an Asymmetric Top
   Translational Enthalpy:        0.889 kcal/mol
   Rotational Enthalpy:           0.889 kcal/mol
   Vibrational Enthalpy:         40.004 kcal/mol
   gas constant (RT):             0.592 kcal/mol
   Translational Entropy:        38.388  cal/mol.K
   Rotational Entropy:           23.967  cal/mol.K
   Vibrational Entropy:           6.724  cal/mol.K

   Total Enthalpy:               42.374 kcal/mol
   Total Entropy:                69.079  cal/mol.K
 Total job time:  787.47s(wall), 11894.02s(cpu)
        *  Thank you very much for using Q-Chem.  Have a nice day.  *
