 Q-Chem 5.4, Q-Chem, Inc., Pleasanton, CA (2021)
 Q-Chem 5.4.1 for Intel X86 EM64T Linux

User input:
--------------------------------------------------------------
$molecule
0 1
O         5.3758408312    1.0978109892    3.5372726765
O         4.1325142784    0.8075496310    4.1995342571
C         4.3436896055    1.0376506295    5.5803525241
O         4.4740308200    2.3996570517    5.8862882232
H         3.4261314772    0.6700662262    6.0449237695
H         5.2141454001    0.4635652418    5.9129952653
H         5.3910860218    2.6519758416    5.6894661476
H         5.2560353659    2.0381815890    3.3059395367
$end

$rem
BASIS = 6-311++G(2df,2p)
GUI = 2
JOB_TYPE = Optimization
METHOD = wB97M-V
SCF_ALGORITHM = DIIS_GDM
MAX_SCF_CYCLES = 400
GEOM_OPT_MAX_CYCLES = 150
SCF_CONVERGENCE = 7
THRESH = 12
Solvent_method = SMD
$end
--------------------------------------------------------------

   13    -266.1110367425      8.38e-08  Convergence criterion met
 Total energy in the final basis set =     -266.1075106354
   12    -266.1113765250      9.47e-08  Convergence criterion met
 Total energy in the final basis set =     -266.1077591763
   12    -266.1113549416      7.49e-08  Convergence criterion met
 Total energy in the final basis set =     -266.1077988853
   12    -266.1114183001      7.24e-08  Convergence criterion met
 Total energy in the final basis set =     -266.1078375758
   12    -266.1114160627      6.82e-08  Convergence criterion met
 Total energy in the final basis set =     -266.1078402616
   12    -266.1114168882      7.01e-08  Convergence criterion met
 Total energy in the final basis set =     -266.1078414082

             Standard Nuclear Orientation (Angstroms)
    I     Atom           X                Y                Z
 ----------------------------------------------------------------
    1      O       5.3553525149     1.0751051358     3.5189425548
    2      O       4.1226243577     0.8278882390     4.1993936263
    3      C       4.3442397302     1.0398193445     5.5787294091
    4      O       4.4676785742     2.4004134509     5.8955077674
    5      H       3.4384076469     0.6613775696     6.0462678270
    6      H       5.2230884273     0.4785626325     5.8933544713
    7      H       5.3793334033     2.6709719845     5.7392102492
    8      H       5.2827491456     2.0123188432     3.2853664949
 ----------------------------------------------------------------

   12    -266.1114201924      7.08e-08  Convergence criterion met
 Total energy in the final basis set =     -266.1078418928
 Final energy is   -266.107841892847
 **  OPTIMIZATION CONVERGED  **

                    Orbital Energies (a.u.)
 --------------------------------------------------------------

 Alpha MOs
 -- Occupied --
-19.4038 -19.3954 -19.3487 -10.4374  -1.2751  -1.1696  -1.0439  -0.7895
 -0.6627  -0.6495  -0.6052  -0.5741  -0.5141  -0.4718  -0.4386  -0.4103
 -0.4053

          Ground-State Mulliken Net Atomic Charges

     Atom                 Charge (a.u.)
  ----------------------------------------
      1 O                    -0.346516
      2 O                    -0.154473
      3 C                    -0.136045
      4 O                    -0.449936
      5 H                     0.184849
      6 H                     0.214969
      7 H                     0.339349
      8 H                     0.347804
  ----------------------------------------
  Sum of atomic charges =     0.000000

                    Cartesian Multipole Moments
 -----------------------------------------------------------------
    Charge (ESU x 10^10)
                 0.0000
    Dipole Moment (Debye)
         X       1.9207      Y       1.1779      Z       0.9929
       Tot       2.4622
    Quadrupole Moments (Debye-Ang)
        XX      -5.5811     XY      12.2413     YY     -20.9011
        XZ      14.2691     YZ       1.0406     ZZ     -15.3355

 Total job time:  101.49s(wall), 1531.31s(cpu)
        *  Thank you very much for using Q-Chem.  Have a nice day.  *
