 Q-Chem 5.4, Q-Chem, Inc., Pleasanton, CA (2021)
 Q-Chem 5.4.1 for Intel X86 EM64T Linux

User input:
--------------------------------------------------------------
$molecule
-1 2
O         3.1845608223   -0.8694993751   -0.5477475164
C         2.2641637429    0.1215925277   -0.1508837950
C         2.6889849272    0.9520749622    1.0510928984
O         1.8460444151    1.6379770509    1.6270229097
C         4.1327241294    0.9920712884    1.3935512345
C         4.7083157677    1.9526915166    2.1225541063
C         4.0278516999    3.1413841573    2.7458198439
O         3.5003592911    2.7333561897    3.9947440349
O         5.0282542983    4.1295136091    2.8997987869
H         3.1518017020   -1.5627890501    0.1757202313
H         1.2708342222   -0.2905076240    0.0737874143
H         2.1383666960    0.8280711055   -0.9833169453
H         4.7446324382    0.1999469895    0.9760188979
H         5.7814410539    1.9059371246    2.3040678990
H         3.2230193808    3.5243558799    2.1115766004
H         2.8892370817    3.4309618490    4.2853931413
H         4.5756570249    4.9702132838    3.0774855310
O         2.9462143537   -2.4104463401    1.5740725503
O         2.6688682525   -1.3632855449    2.3413634767
$end

$rem
BASIS = 6-311++G(2df,2p)
GUI = 2
JOB_TYPE = Optimization
METHOD = wB97M-V
SCF_ALGORITHM = DIIS_GDM
MAX_SCF_CYCLES = 400
GEOM_OPT_MAX_CYCLES = 150
SCF_CONVERGENCE = 7
THRESH = 12
Solvent_method = SMD
$end
--------------------------------------------------------------

   26    -646.7269649164      6.60e-08  Convergence criterion met
 Total energy in the final basis set =     -646.7208568180
   25    -646.7277511302      6.73e-08  Convergence criterion met
 Total energy in the final basis set =     -646.7215458265
   25    -646.7272754054      8.40e-08  Convergence criterion met
 Total energy in the final basis set =     -646.7210807510
   25    -646.7280846126      4.99e-08  Convergence criterion met
 Total energy in the final basis set =     -646.7218981783
   25    -646.7281003846      7.80e-08  Convergence criterion met
 Total energy in the final basis set =     -646.7219085737
   25    -646.7281446888      6.24e-08  Convergence criterion met
 Total energy in the final basis set =     -646.7219566540
   25    -646.7281710599      6.02e-08  Convergence criterion met
 Total energy in the final basis set =     -646.7219874904
   25    -646.7281949420      7.07e-08  Convergence criterion met
 Total energy in the final basis set =     -646.7220062105
   25    -646.7282166264      7.73e-08  Convergence criterion met
 Total energy in the final basis set =     -646.7220261547
   25    -646.7282242222      8.43e-08  Convergence criterion met
 Total energy in the final basis set =     -646.7220305310
   25    -646.7282266687      9.09e-08  Convergence criterion met
 Total energy in the final basis set =     -646.7220355110
   24    -646.7282259335      9.93e-08  Convergence criterion met
 Total energy in the final basis set =     -646.7220382249
   25    -646.7282237512      5.58e-08  Convergence criterion met
 Total energy in the final basis set =     -646.7220395800

             Standard Nuclear Orientation (Angstroms)
    I     Atom           X                Y                Z
 ----------------------------------------------------------------
    1      O       3.2079733072    -0.7445120449    -0.5921890999
    2      C       2.2659419745     0.1984824523    -0.1330120871
    3      C       2.6593824200     0.9446365992     1.1263294984
    4      O       1.8028678260     1.5764599397     1.7285880778
    5      C       4.0815506379     0.9360503339     1.5379808829
    6      C       4.6617374868     1.9020626824     2.2441967746
    7      C       4.0202629023     3.1619430686     2.7442315542
    8      O       3.5858617244     2.9282902171     4.0697884540
    9      O       5.0212498006     4.1602214792     2.7042460822
   10      H       3.2117117609    -1.4943505827     0.0546540246
   11      H       1.2867435797    -0.2519489533     0.0461089955
   12      H       2.1388743789     0.9605529655    -0.9067232037
   13      H       4.6770623274     0.1021412685     1.1966347341
   14      H       5.7167194407     1.8166344168     2.4829342562
   15      H       3.1775181484     3.4700621758     2.1293190175
   16      H       2.9859226594     3.6414643694     4.3179767136
   17      H       4.5894683850     5.0211152894     2.7420672671
   18      O       3.0526112487    -2.5822476882     1.3332501768
   19      O       2.6278712911    -1.7234383886     2.2457391812
 ----------------------------------------------------------------

   25    -646.7282232444      4.62e-08  Convergence criterion met
 Total energy in the final basis set =     -646.7220399317
 Final energy is   -646.722039931722
 **  OPTIMIZATION CONVERGED  **

                    Orbital Energies (a.u.)
 --------------------------------------------------------------

 Alpha MOs
 -- Occupied --
-19.3485 -19.3470 -19.3433 -19.3431 -19.3302 -19.3203 -10.4468 -10.4403
-10.3840 -10.3617 -10.3500  -1.2293  -1.1983  -1.1817  -1.1415  -1.1322
 -0.9286  -0.8770  -0.8449  -0.8022  -0.7224  -0.6655  -0.6438  -0.6331
 -0.6222  -0.5817  -0.5763  -0.5564  -0.5362  -0.5308  -0.5224  -0.5161
 -0.5040  -0.4998  -0.4922  -0.4570  -0.4427  -0.4181  -0.4136  -0.4032
 -0.3788  -0.3512  -0.3323  -0.3021

 Beta MOs
 -- Occupied --
-19.3433 -19.3431 -19.3347 -19.3319 -19.3302 -19.3204 -10.4468 -10.4403
-10.3840 -10.3617 -10.3500  -1.2007  -1.1982  -1.1816  -1.1412  -1.1322
 -0.9285  -0.8498  -0.8301  -0.8020  -0.7224  -0.6654  -0.6438  -0.6325
 -0.6220  -0.5812  -0.5762  -0.5563  -0.5233  -0.5170  -0.5092  -0.4999
 -0.4962  -0.4885  -0.4570  -0.4489  -0.4387  -0.4180  -0.4135  -0.4029
 -0.3781  -0.3511  -0.2832

          Ground-State Mulliken Net Atomic Charges

     Atom                 Charge (a.u.)    Spin (a.u.)
  --------------------------------------------------------
      1 O                    -0.463960       0.000332
      2 C                    -0.446111      -0.004189
      3 C                     0.145502       0.001341
      4 O                    -0.443012      -0.002134
      5 C                     0.276741       0.013655
      6 C                    -0.355430      -0.010295
      7 C                    -0.339428      -0.000198
      8 O                    -0.416343      -0.000004
      9 O                    -0.438591       0.000025
     10 H                     0.345898      -0.003151
     11 H                     0.260232      -0.000400
     12 H                     0.198315      -0.000738
     13 H                     0.296115       0.001324
     14 H                     0.281727      -0.000251
     15 H                     0.255130       0.000040
     16 H                     0.338238      -0.000008
     17 H                     0.338481      -0.000001
     18 O                    -0.440859       0.478883
     19 O                    -0.392645       0.525770
  --------------------------------------------------------
  Sum of atomic charges =    -1.000000

                    Cartesian Multipole Moments
 -----------------------------------------------------------------
    Charge (ESU x 10^10)
                -4.8032
    Dipole Moment (Debye)
         X     -14.5795      Y       9.6295      Z      -8.9222
       Tot      19.6188
    Quadrupole Moments (Debye-Ang)
        XX    -118.7147     XY      23.1555     YY     -69.3303
        XZ     -26.9736     YZ      16.6948     ZZ     -95.5591

 Total job time:  4713.15s(wall), 52822.27s(cpu)
        *  Thank you very much for using Q-Chem.  Have a nice day.  *
