 Q-Chem 5.4, Q-Chem, Inc., Pleasanton, CA (2021)
 Q-Chem 5.4.1 for Intel X86 EM64T Linux

User input:
--------------------------------------------------------------
$comment

$end

$molecule
-1 2
O    3.2190289   -0.8022062   -0.6998998
C    2.4027385    0.1018893   -0.0023786
C    2.8983862    0.3085723    1.4450013
O    2.0345600    1.2028630    2.0868879
C    4.3262403    0.8409196    1.4031164
C    4.8142839    1.9988840    1.9021834
C    4.0400288    3.0530946    2.6496045
O    3.5496658    2.5088852    3.8461259
O    4.8984839    4.1228935    2.9429522
H    2.9288678   -1.7132714   -0.4331767
H    1.3458849   -0.2511871   -0.0156583
H    2.4113908    1.0733891   -0.5423589
H    5.0481095    0.2015557    0.9008982
H    5.8737061    2.1880090    1.7459837
H    3.2140507    3.4021824    1.9849558
H    2.8469978    3.1307698    4.1695180
H    4.3206221    4.8779852    3.2280718
O    2.9252038   -0.9175738    2.1446842
O    1.6730815   -1.3040346    2.3156103
$end

$rem
BASIS = 6-31G(d)
GUI = 2
JOB_TYPE = Optimization
METHOD = B97-D3
DFT_D  = D3_BJ
SCF_ALGORITHM = DIIS_GDM
MAX_SCF_CYCLES = 400
GEOM_OPT_MAX_CYCLES = 300
SCF_CONVERGENCE = 7
THRESH = 12
Solvent_method = SMD
$end
--------------------------------------------------------------

   28    -646.2204571027      6.05e-08  Convergence criterion met
 Total energy in the final basis set =     -646.2150504660
   35    -646.2390103923      2.97e-08  Convergence criterion met
 Total energy in the final basis set =     -646.2335255315
   28    -646.2490961437      3.31e-08  Convergence criterion met
 Total energy in the final basis set =     -646.2432770858
   24    -646.2541703236      8.48e-08  Convergence criterion met
 Total energy in the final basis set =     -646.2481294340
   23    -646.2578904217      7.68e-08  Convergence criterion met
 Total energy in the final basis set =     -646.2516873018
   28    -646.2609335094      2.16e-08  Convergence criterion met
 Total energy in the final basis set =     -646.2546890658
   25    -646.2642602450      2.49e-08  Convergence criterion met
 Total energy in the final basis set =     -646.2579936785
   27    -646.2682768741      5.04e-08  Convergence criterion met
   56    -646.2797238070      1.88e-08  Convergence criterion met
 Total energy in the final basis set =     -646.2735300862
   54    -646.2797702975      8.66e-08  Convergence criterion met
 Total energy in the final basis set =     -646.2735755660
   63    -646.2797780378      8.35e-08  Convergence criterion met
 Total energy in the final basis set =     -646.2735856188
   52    -646.2797886539      7.09e-08  Convergence criterion met
 Total energy in the final basis set =     -646.2735945958
   45    -646.2797908206      9.15e-08  Convergence criterion met
 Total energy in the final basis set =     -646.2735987643
   46    -646.2797907423      8.23e-08  Convergence criterion met
 Total energy in the final basis set =     -646.2736005964

             Standard Nuclear Orientation (Angstroms)
    I     Atom           X                Y                Z
 ----------------------------------------------------------------
    1      O       3.2237552982    -1.1008090563    -0.5317109093
    2      C       2.3343748573    -0.0127118280    -0.2696397506
    3      C       2.7509920061     0.9022986078     0.8878393084
    4      O       1.8433582354     1.5343799202     1.4824589156
    5      C       4.1930782678     1.1289052054     1.0826734297
    6      C       4.7756050789     2.0511560253     1.8866244522
    7      C       4.0659179434     3.0188351167     2.7938194831
    8      O       3.7419691775     2.3399703235     4.0177278405
    9      O       4.9676205259     4.1051774742     3.0205946924
   10      H       3.3127999893    -1.5287622992     0.3472147573
   11      H       1.3126885466    -0.3664435721    -0.0440925625
   12      H       2.2855870129     0.5830420077    -1.1957644226
   13      H       4.8431078948     0.4888045286     0.4843010892
   14      H       5.8664834599     2.1078567884     1.9192648020
   15      H       3.1381749082     3.3928546458     2.3408677600
   16      H       3.0582781496     2.8811038343     4.4574214229
   17      H       4.4438187924     4.8183338657     3.4317398885
   18      O       2.9294833441    -1.1321625885     2.2675798590
   19      O       1.6842378116    -1.1882093995     2.6932012443
 ----------------------------------------------------------------

   48    -646.2797905621      5.46e-09  Convergence criterion met
 Total energy in the final basis set =     -646.2736011297
 Final energy is   -646.273601129702
 **  OPTIMIZATION CONVERGED  **

                    Orbital Energies (a.u.)
 --------------------------------------------------------------

 Alpha MOs
 -- Occupied --
-18.7954 -18.7852 -18.7687 -18.7667 -18.7619 -18.7340 -10.0014  -9.9746
 -9.9449  -9.9119  -9.9078  -1.0129  -0.9568  -0.9255  -0.9097  -0.8979
 -0.7059  -0.6670  -0.6371  -0.5983  -0.5263  -0.4748  -0.4598  -0.4505
 -0.4297  -0.3948  -0.3868  -0.3778  -0.3717  -0.3597  -0.3382  -0.3374
 -0.3330  -0.3178  -0.3017  -0.2896  -0.2874  -0.2412  -0.2337  -0.2243
 -0.2187  -0.1801  -0.1681  -0.1392

 Beta MOs
 -- Occupied --
-18.7867 -18.7758 -18.7687 -18.7667 -18.7618 -18.7344 -10.0014  -9.9748
 -9.9449  -9.9121  -9.9077  -0.9818  -0.9569  -0.9253  -0.9106  -0.8980
 -0.7069  -0.6390  -0.6267  -0.5981  -0.5273  -0.4749  -0.4601  -0.4500
 -0.4299  -0.3948  -0.3849  -0.3766  -0.3524  -0.3391  -0.3380  -0.3256
 -0.3179  -0.3029  -0.2956  -0.2879  -0.2816  -0.2417  -0.2345  -0.2242
 -0.2198  -0.1806  -0.1165

          Ground-State Mulliken Net Atomic Charges

     Atom                 Charge (a.u.)    Spin (a.u.)
  --------------------------------------------------------
      1 O                    -0.674024       0.008468
      2 C                    -0.128101       0.003225
      3 C                     0.401099      -0.054884
      4 O                    -0.621555      -0.023277
      5 C                    -0.172435       0.018576
      6 C                    -0.173229      -0.064805
      7 C                     0.270456       0.002930
      8 O                    -0.665815      -0.001672
      9 O                    -0.669835      -0.000771
     10 H                     0.426718       0.002328
     11 H                     0.143708      -0.002158
     12 H                     0.179113      -0.001864
     13 H                     0.151271      -0.000538
     14 H                     0.167297       0.003593
     15 H                     0.154067      -0.000375
     16 H                     0.430037      -0.000818
     17 H                     0.432989       0.000052
     18 O                    -0.312848       0.527067
     19 O                    -0.338913       0.584922
  --------------------------------------------------------
  Sum of atomic charges =    -1.000000

                    Cartesian Multipole Moments
 -----------------------------------------------------------------
    Charge (ESU x 10^10)
                -4.8032
    Dipole Moment (Debye)
         X     -13.1268      Y       2.7321      Z      -9.3383
       Tot      16.3396
    Quadrupole Moments (Debye-Ang)
        XX    -111.1270     XY       0.4731     YY     -60.0316
        XZ     -27.2883     YZ      11.0206     ZZ     -87.8875

 Total job time:  4447.62s(wall), 15537.74s(cpu)
        *  Thank you very much for using Q-Chem.  Have a nice day.  *
