 Q-Chem 5.4, Q-Chem, Inc., Pleasanton, CA (2021)
 Q-Chem 5.4.1 for Intel X86 EM64T Linux

User input:
--------------------------------------------------------------
$molecule
0 2
C        -1.1454990729   -0.4336396230    0.4680526995
O        -2.0567914655   -1.0078189221   -0.0727297783
H        -0.9319162890   -0.5248207358    1.5434370862
C        -0.2140251340    0.4811059473   -0.3001375466
H        -0.4970758750    0.6648592846   -1.3387763357
O         0.4707184350    1.3330243073    0.3565603192
O         1.0711199983   -0.7689769156   -0.6452664390
O         2.0970559045   -0.2345219479   -0.1064836761
H         1.6083375597    0.7198570415    0.2935816276
$end

$rem
BASIS = 6-311++G(2df,2p)
GUI = 2
JOB_TYPE = Frequency
METHOD = wB97M-V
SOLVENT_METHOD = SMD
SCF_ALGORITHM = DIIS_GDM
MAX_SCF_CYCLES = 400
SCF_CONVERGENCE = 7
THRESH = 12
$end

--------------------------------------------------------------

   21    -378.7668527920      8.02e-08  Convergence criterion met
 Total energy in the final basis set =     -378.7610689146
   18    -378.7668479568      6.25e-08  Convergence criterion met
 Total energy in the final basis set =     -378.7610678517
   18    -378.7668553593      5.76e-08  Convergence criterion met
 Total energy in the final basis set =     -378.7610677237
   18    -378.7668491065      6.07e-08  Convergence criterion met
 Total energy in the final basis set =     -378.7610681467
   18    -378.7668550284      6.37e-08  Convergence criterion met
 Total energy in the final basis set =     -378.7610682387
   18    -378.7668514521      5.94e-08  Convergence criterion met
 Total energy in the final basis set =     -378.7610677116
   18    -378.7668516706      6.02e-08  Convergence criterion met
 Total energy in the final basis set =     -378.7610676578
   18    -378.7668539131      6.04e-08  Convergence criterion met
 Frequency:      -827.70                  75.62                 136.06
 Force Cnst:      0.6204                 0.0194                 0.0655
 Red. Mass:       1.5371                 5.7714                 6.0062
 IR Intens:      313.357                 25.313                  2.416
 Frequency:       252.24                 382.97                 433.19
 Force Cnst:      0.1375                 0.3800                 0.4528
 Red. Mass:       3.6678                 4.3972                 4.0958
 IR Intens:       12.083                103.111                384.451
 Frequency:       505.91                 719.56                 799.60
 Force Cnst:      1.2527                 2.0709                 2.4911
 Red. Mass:       8.3074                 6.7888                 6.6129
 IR Intens:       16.925                  1.147                 62.653
 Frequency:       968.53                1014.58                1101.78
 Force Cnst:      0.7667                 0.6627                 2.4620
 Red. Mass:       1.3872                 1.0927                 3.4422
 IR Intens:       13.683                129.518                 46.931
 Frequency:      1131.85                1314.01                1351.84
 Force Cnst:      1.1389                 1.2825                 5.5937
 Red. Mass:       1.5089                 1.2607                 5.1952
 IR Intens:       52.937                 35.834                 76.691
 Frequency:      1370.54                1551.59                1796.25
 Force Cnst:      1.6375                 5.7223                18.1468
 Red. Mass:       1.4796                 4.0342                 9.5458
 IR Intens:       60.047                508.733                349.174
 Frequency:      1931.20                3020.48                3095.16
 Force Cnst:      2.2758                 5.8567                 6.1544
 Red. Mass:       1.0357                 1.0896                 1.0904
 IR Intens:      203.559                 56.771                 30.511

 STANDARD THERMODYNAMIC QUANTITIES AT   298.15 K  AND     1.00 ATM

   This Molecule has  1 Imaginary Frequencies
   Zero point vibrational energy:       32.813 kcal/mol

   Atom    1 Element C  Has Mass   12.00000
   Atom    2 Element O  Has Mass   15.99491
   Atom    3 Element H  Has Mass    1.00783
   Atom    4 Element C  Has Mass   12.00000
   Atom    5 Element H  Has Mass    1.00783
   Atom    6 Element O  Has Mass   15.99491
   Atom    7 Element O  Has Mass   15.99491
   Atom    8 Element O  Has Mass   15.99491
   Atom    9 Element H  Has Mass    1.00783
   Molecular Mass:    91.003130 amu
   Principal axes and moments of inertia in amu*Bohr^2:
                             1           2           3
    Eigenvalues --      247.66803   706.50566   874.25594
          X               0.97322    -0.18586     0.13529
          Y               0.21834     0.93148    -0.29099
          Z              -0.07194     0.31274     0.94711
   Rotational Symmetry Number is   1
   The Molecule is an Asymmetric Top
   Translational Enthalpy:        0.889 kcal/mol
   Rotational Enthalpy:           0.889 kcal/mol
   Vibrational Enthalpy:         34.758 kcal/mol
   gas constant (RT):             0.592 kcal/mol
   Translational Entropy:        39.437  cal/mol.K
   Rotational Entropy:           26.528  cal/mol.K
   Vibrational Entropy:          11.979  cal/mol.K

   Total Enthalpy:               37.127 kcal/mol
   Total Entropy:                77.944  cal/mol.K
 Total job time:  2094.31s(wall), 32153.89s(cpu)
        *  Thank you very much for using Q-Chem.  Have a nice day.  *
 Q-Chem 5.4, Q-Chem, Inc., Pleasanton, CA (2021)
 Q-Chem 5.4.1 for Intel X86 EM64T Linux

User input:
--------------------------------------------------------------

$molecule
read
$end

$rem
JOBTYPE            rpath
SCF_GUESS          read
RPATH_MAX_CYCLES   30
BASIS = 6-311++G(2df,2p)
METHOD = wB97M-V
SOLVENT_METHOD = SMD
SCF_ALGORITHM = DIIS_GDM
SCF_CONVERGENCE = 7
THRESH = 12
$end
--------------------------------------------------------------

 Total energy in the final basis set =     -378.7808084564
   19    -378.7870163593      5.74e-08  Convergence criterion met
 Total energy in the final basis set =     -378.7819866346
   19    -378.7870700320      4.73e-08  Convergence criterion met
 Total energy in the final basis set =     -378.7818921694
   19    -378.7871138169      5.61e-08  Convergence criterion met
 Total energy in the final basis set =     -378.7820298774
   19    -378.7857359695      4.64e-08  Convergence criterion met
 Total energy in the final basis set =     -378.7802804706
   19    -378.7872634744      3.94e-08  Convergence criterion met
 Total energy in the final basis set =     -378.7821064951
   19    -378.7871566056      4.07e-08  Convergence criterion met
 Total energy in the final basis set =     -378.7820892091
   19    -378.7872505006      3.06e-08  Convergence criterion met
 Total energy in the final basis set =     -378.7821318112

                    Orbital Energies (a.u.)
 --------------------------------------------------------------

 Alpha MOs
 -- Occupied --
-19.4842 -19.4371 -19.3660 -19.3645 -10.4727 -10.4555  -1.3713  -1.2155
 -1.1966  -1.0261  -0.8399  -0.7336  -0.7079  -0.6530  -0.6498  -0.6133
 -0.5869  -0.5606  -0.5260  -0.5143  -0.4480  -0.4311  -0.4193  -0.3723

 Beta MOs
 -- Occupied --
-19.4730 -19.4188 -19.3659 -19.3644 -10.4731 -10.4551  -1.3457  -1.2148
 -1.1951  -0.9948  -0.8299  -0.7271  -0.6995  -0.6450  -0.6204  -0.6017
 -0.5681  -0.5289  -0.5198  -0.5102  -0.4427  -0.4105  -0.3821

          Ground-State Mulliken Net Atomic Charges

     Atom                 Charge (a.u.)    Spin (a.u.)
  --------------------------------------------------------
      1 C                     0.186587       0.015105
      2 O                    -0.345581       0.003833
      3 H                     0.221542       0.002408
      4 C                    -0.141059      -0.017558
      5 H                     0.256072       0.012945
      6 O                    -0.394055       0.004057
      7 O                     0.051998       0.336859
      8 O                    -0.175760       0.646823
      9 H                     0.340256      -0.004471
  --------------------------------------------------------
  Sum of atomic charges =     0.000000

                    Cartesian Multipole Moments
 -----------------------------------------------------------------
    Charge (ESU x 10^10)
                 0.0000
    Dipole Moment (Debye)
         X       1.0773      Y       1.2709      Z       0.8174
       Tot       1.8558
    Quadrupole Moments (Debye-Ang)
        XX     -41.9200     XY      -1.4631     YY     -38.8165
        XZ      -0.0705     YZ      -2.8079     ZZ     -31.4798

             Standard Nuclear Orientation (Angstroms)
    I     Atom           X                Y                Z
 ----------------------------------------------------------------
    1      C      -1.1454990729    -0.4336396230     0.4680526995
    2      O      -2.0567914655    -1.0078189221    -0.0727297783
    3      H      -0.9319162890    -0.5248207358     1.5434370862
    4      C      -0.2140251340     0.4811059473    -0.3001375466
    5      H      -0.4970758750     0.6648592846    -1.3387763357
    6      O       0.4707184350     1.3330243073     0.3565603192
    7      O       1.0711199983    -0.7689769156    -0.6452664390
    8      O       2.0970559045    -0.2345219479    -0.1064836761
    9      H       1.6083375597     0.7198570415     0.2935816276
 ----------------------------------------------------------------

 Total job time:  3431.31s(wall), 52636.08s(cpu)
        *  Thank you very much for using Q-Chem.  Have a nice day.  *
