 Q-Chem 5.4, Q-Chem, Inc., Pleasanton, CA (2021)
 Q-Chem 5.4.1 for Intel X86 EM64T Linux

User input:
--------------------------------------------------------------
$molecule
0 2
C        -1.1913351321   -0.4410543917    0.4594493310
O        -1.8103297858   -1.3240137884   -0.0799033445
H        -0.8849483501   -0.4766914593    1.5150719293
C        -0.8208869830    0.8259264621   -0.2926659536
H        -0.9841467676    0.8055464042   -1.3794095523
O        -0.4109821672    1.7940557828    0.2982495812
O         1.3474836921   -0.7424812060   -0.4543292205
O         2.1504887172    0.1142094027    0.1214365213
H         3.0447292937   -0.2759654296    0.0782900773
****
C   -0.5373745   -1.6726011    0.3770434
O   -1.2994607   -2.4520124   -0.1329340
H    0.0284341   -1.9040543    1.2898986
C   -0.3045611   -0.2758656   -0.1703024
H   -1.0078620    0.4270127    0.2793841
O    1.0150434    0.0736998    0.0267414
O   -0.6225941   -0.3348853   -1.5917912
O   -0.7041361    0.8671519   -2.0910244
H    1.0954286    1.0351225    0.0171924
$end

$rem
BASIS = 6-311++G(2df,2p)
GUI = 2
JOB_TYPE = FSM
FSM_MODE = 2
METHOD = wB97M-v
MAX_SCF_CYCLES = 120
FSM_NGRAD = 6
FSM_NNODE = 20
SCF_CONVERGENCE = 7
THRESH = 12
SCF_ALGORITHM = DIIS_GDM
UNRESTRICTED = 1
solvent_method = SMD
$end

--------------------------------------------------------------

   23    -378.7763028947      3.31e-08  Convergence criterion met
 Total energy in the final basis set =     -378.7691028063
   21    -378.7943596258      9.92e-08  Convergence criterion met
 Total energy in the final basis set =     -378.7891478212
   22    -378.7662365589      8.54e-08  Convergence criterion met
 Total energy in the final basis set =     -378.7590479941
   22    -378.7752863053      9.94e-08  Convergence criterion met
 Total energy in the final basis set =     -378.7680753943
   21    -378.7832105608      9.31e-08  Convergence criterion met
 Total energy in the final basis set =     -378.7778723387
   22    -378.7925398844      3.62e-08  Convergence criterion met
 Total energy in the final basis set =     -378.7874783339
   23    -378.7665350167      5.53e-08  Convergence criterion met
 Total energy in the final basis set =     -378.7593328472
   23    -378.7712915340      6.75e-08  Convergence criterion met
 Total job time:  4769.75s(wall), 36970.46s(cpu)
        *  Thank you very much for using Q-Chem.  Have a nice day.  *
 Q-Chem 5.4, Q-Chem, Inc., Pleasanton, CA (2021)
 Q-Chem 5.4.1 for Intel X86 EM64T Linux

User input:
--------------------------------------------------------------

$rem
JOBTYPE = ts
SCF_GUESS = read
GEOM_OPT_HESSIAN = read
MAX_SCF_CYCLES = 350
GEOM_OPT_DMAX = 60
GEOM_OPT_MAX_CYCLES = 250
METHOD = wB97M-v
BASIS = 6-311++G(2df,2p)
SCF_CONVERGENCE = 7
THRESH = 12
SCF_ALGORITHM = DIIS_GDM
UNRESTRICTED = 1
solvent_method = SMD
$end

$molecule
read
$end

--------------------------------------------------------------

   18    -378.7668567285      6.53e-08  Convergence criterion met
 Total energy in the final basis set =     -378.7610678586
   18    -378.7668564666      5.15e-08  Convergence criterion met
 Total energy in the final basis set =     -378.7610680349
   18    -378.7668536030      8.20e-08  Convergence criterion met
 Total energy in the final basis set =     -378.7610672879
   18    -378.7668520889      5.56e-08  Convergence criterion met
 Total energy in the final basis set =     -378.7610679545
   18    -378.7668493706      6.34e-08  Convergence criterion met
 Total energy in the final basis set =     -378.7610666928
   18    -378.7668520166      7.47e-08  Convergence criterion met
 Total energy in the final basis set =     -378.7610687695

             Standard Nuclear Orientation (Angstroms)
    I     Atom           X                Y                Z
 ----------------------------------------------------------------
    1      C      -1.1454990729    -0.4336396230     0.4680526995
    2      O      -2.0567914655    -1.0078189221    -0.0727297783
    3      H      -0.9319162890    -0.5248207358     1.5434370862
    4      C      -0.2140251340     0.4811059473    -0.3001375466
    5      H      -0.4970758750     0.6648592846    -1.3387763357
    6      O       0.4707184350     1.3330243073     0.3565603192
    7      O       1.0711199983    -0.7689769156    -0.6452664390
    8      O       2.0970559045    -0.2345219479    -0.1064836761
    9      H       1.6083375597     0.7198570415     0.2935816276
 ----------------------------------------------------------------

   18    -378.7668527921      7.27e-08  Convergence criterion met
 Total energy in the final basis set =     -378.7610689148
 Final energy is   -378.761068914775
 **  OPTIMIZATION CONVERGED  **

                    Orbital Energies (a.u.)
 --------------------------------------------------------------

 Alpha MOs
 -- Occupied --
-19.4776 -19.4734 -19.3648 -19.3468 -10.4645 -10.4534  -1.3927  -1.2130
 -1.1887  -1.0070  -0.8309  -0.7374  -0.7133  -0.6542  -0.6432  -0.6102
 -0.5987  -0.5610  -0.5325  -0.4771  -0.4558  -0.4373  -0.4220  -0.3710

 Beta MOs
 -- Occupied --
-19.4614 -19.4591 -19.3648 -19.3467 -10.4648 -10.4532  -1.3645  -1.2128
 -1.1879  -0.9690  -0.8271  -0.7276  -0.7089  -0.6258  -0.6120  -0.6068
 -0.5648  -0.5491  -0.5292  -0.4719  -0.4431  -0.4247  -0.3746

          Ground-State Mulliken Net Atomic Charges

     Atom                 Charge (a.u.)    Spin (a.u.)
  --------------------------------------------------------
      1 C                     0.147485       0.009835
      2 O                    -0.347720       0.000338
      3 H                     0.219996       0.000934
      4 C                    -0.114141      -0.028607
      5 H                     0.270846       0.007223
      6 O                    -0.468512       0.002187
      7 O                    -0.006512       0.538828
      8 O                    -0.067232       0.478370
      9 H                     0.365789      -0.009108
  --------------------------------------------------------
  Sum of atomic charges =     0.000000

                    Cartesian Multipole Moments
 -----------------------------------------------------------------
    Charge (ESU x 10^10)
                 0.0000
    Dipole Moment (Debye)
         X       1.5685      Y       0.5746      Z       0.4362
       Tot       1.7264
    Quadrupole Moments (Debye-Ang)
        XX     -39.9635     XY      -3.1829     YY     -39.8507
        XZ      -0.8067     YZ      -3.1731     ZZ     -31.7342

 Total job time:  5119.87s(wall), 39685.89s(cpu)
        *  Thank you very much for using Q-Chem.  Have a nice day.  *
