 Q-Chem 5.4, Q-Chem, Inc., Pleasanton, CA (2021)
 Q-Chem 5.4.1 for Intel X86 EM64T Linux

User input:
--------------------------------------------------------------
$molecule
0 1
H         0.0174884129    1.2400110609    1.0108770123
O        -0.5473847016    0.8562167925    0.3312910626
H        -1.4226274008    1.2156887062    0.5133076320
H         1.1083635998    1.3866437026   -2.4131704394
O         0.2750010745    1.8180293627   -2.2010101898
H         0.0297357151    1.4715295750   -1.3244832777
$end

$rem
BASIS = 6-311++G(2df,2p)
GUI = 2
JOB_TYPE = Frequency
METHOD = wB97M-V
SOLVENT_METHOD = SMD
SCF_ALGORITHM = DIIS_GDM
MAX_SCF_CYCLES = 400
SCF_CONVERGENCE = 7
THRESH = 12
$end
--------------------------------------------------------------

   11    -152.8883427553      8.72e-08  Convergence criterion met
 Total energy in the final basis set =     -152.8844764314
   10    -152.8883429098      4.65e-08  Convergence criterion met
 Total energy in the final basis set =     -152.8844758583
   10    -152.8883417971      4.65e-08  Convergence criterion met
 Total energy in the final basis set =     -152.8844762012
   10    -152.8883426873      4.66e-08  Convergence criterion met
 Total energy in the final basis set =     -152.8844761765
   10    -152.8883425041      4.65e-08  Convergence criterion met
 Total energy in the final basis set =     -152.8844763667
   10    -152.8883427098      4.65e-08  Convergence criterion met
 Total energy in the final basis set =     -152.8844759087
   10    -152.8883418525      4.66e-08  Convergence criterion met
 Total energy in the final basis set =     -152.8844760057
   10    -152.8883416935      4.65e-08  Convergence criterion met
 Total energy in the final basis set =     -152.8844758214
   10    -152.8883420839      4.59e-08  Convergence criterion met
 Total energy in the final basis set =     -152.8844754594
   10    -152.8883421254      4.68e-08  Convergence criterion met
 Total energy in the final basis set =     -152.8844760924
   10    -152.8883431186      4.67e-08  Convergence criterion met
 Total energy in the final basis set =     -152.8844765036
   10    -152.8883429250      4.62e-08  Convergence criterion met
 Total energy in the final basis set =     -152.8844765618
   10    -152.8883423075      4.69e-08  Convergence criterion met
 Total energy in the final basis set =     -152.8844760223
   10    -152.8883420937      4.63e-08  Convergence criterion met
 Total energy in the final basis set =     -152.8844754866
   10    -152.8883420694      4.66e-08  Convergence criterion met
 Total energy in the final basis set =     -152.8844760292

                    Orbital Energies (a.u.)
 --------------------------------------------------------------

 Alpha MOs
 -- Occupied --
-19.3411 -19.3213  -1.1487  -1.1262  -0.6409  -0.6296  -0.5236  -0.4934
 -0.4365  -0.4229

          Ground-State Mulliken Net Atomic Charges

     Atom                 Charge (a.u.)
  ----------------------------------------
      1 H                     0.340187
      2 O                    -0.662662
      3 H                     0.340489
      4 H                     0.329815
      5 O                    -0.729096
      6 H                     0.381266
  ----------------------------------------
  Sum of atomic charges =     0.000000

                    Cartesian Multipole Moments
 -----------------------------------------------------------------
    Charge (ESU x 10^10)
                -0.0000
    Dipole Moment (Debye)
         X       0.4407      Y      -0.2248      Z       3.6531
       Tot       3.6865
    Quadrupole Moments (Debye-Ang)
        XX      -8.6555     XY      -0.9306     YY     -17.8703
        XZ      -3.9545     YZ       9.3925     ZZ     -17.7789

             Standard Nuclear Orientation (Angstroms)
    I     Atom           X                Y                Z
 ----------------------------------------------------------------
    1      H       0.0174884129     1.2400110609     1.0108770123
    2      O      -0.5473847016     0.8562167925     0.3312910626
    3      H      -1.4226274008     1.2156887062     0.5133076320
    4      H       1.1083635998     1.3866437026    -2.4131704394
    5      O       0.2750010745     1.8180293627    -2.2010101898
    6      H       0.0297357151     1.4715295750    -1.3244832777
 ----------------------------------------------------------------

 Frequency:        44.42                 184.45                 195.78
 Force Cnst:      0.0012                 0.0215                 0.1407
 Red. Mass:       1.0636                 1.0727                 6.2298
 IR Intens:      280.689                260.610                 26.505
 Frequency:       232.28                 366.93                 569.80
 Force Cnst:      0.0347                 0.0850                 0.1989
 Red. Mass:       1.0921                 1.0710                 1.0396
 IR Intens:      155.429                112.552                220.206
 Frequency:      1591.37                1603.57                3589.26
 Force Cnst:      1.6140                 1.6291                 8.0557
 Red. Mass:       1.0817                 1.0753                 1.0613
 IR Intens:      146.436                101.755                744.884
 Frequency:      3807.80                3868.47                3886.85
 Force Cnst:      8.9356                 9.4217                 9.6291
 Red. Mass:       1.0460                 1.0686                 1.0818
 IR Intens:       50.796                132.230                174.726

 STANDARD THERMODYNAMIC QUANTITIES AT   298.15 K  AND     1.00 ATM

   This Molecule has  0 Imaginary Frequencies
   Zero point vibrational energy:       28.507 kcal/mol

   Atom    1 Element H  Has Mass    1.00783
   Atom    2 Element O  Has Mass   15.99491
   Atom    3 Element H  Has Mass    1.00783
   Atom    4 Element H  Has Mass    1.00783
   Atom    5 Element O  Has Mass   15.99491
   Atom    6 Element H  Has Mass    1.00783
   Molecular Mass:    36.021140 amu
   Principal axes and moments of inertia in amu*Bohr^2:
                             1           2           3
    Eigenvalues --        8.53580   263.71165   267.93691
          X              -0.31199     0.92523     0.21590
          Y              -0.30425    -0.31257     0.89985
          Z               0.90005     0.21506     0.37902
   Rotational Symmetry Number is   1
   The Molecule is an Asymmetric Top
   Translational Enthalpy:        0.889 kcal/mol
   Rotational Enthalpy:           0.889 kcal/mol
   Vibrational Enthalpy:         30.414 kcal/mol
   gas constant (RT):             0.592 kcal/mol
   Translational Entropy:        36.674  cal/mol.K
   Rotational Entropy:           21.027  cal/mol.K
   Vibrational Entropy:          12.981  cal/mol.K

   Total Enthalpy:               32.783 kcal/mol
   Total Entropy:                70.683  cal/mol.K
 Total job time:  253.88s(wall), 3916.76s(cpu)
        *  Thank you very much for using Q-Chem.  Have a nice day.  *
