 Q-Chem 5.4, Q-Chem, Inc., Pleasanton, CA (2021)
 Q-Chem 5.4.2 for Intel X86 EM64T Linux

User input:
--------------------------------------------------------------
$molecule
0 1
H    0.2690221    1.2843861    0.4337289
O   -0.5543549    0.7519356    0.2962552
H   -1.2903653    1.4107535    0.3670688
H    1.1420022    1.4890243   -1.8638129
O    0.2018792    1.7634836   -2.0101486
H   -0.3076066    1.2885361   -1.3062796
$end

$rem
BASIS = 6-311++G(2df,2p)
GUI = 2
JOB_TYPE = Optimization
METHOD = wB97M-V
SCF_ALGORITHM = DIIS_GDM
MAX_SCF_CYCLES = 400
GEOM_OPT_MAX_CYCLES = 150
SCF_CONVERGENCE = 7
THRESH = 12
Solvent_method = SMD
$end
--------------------------------------------------------------

   12    -152.8798944229      3.49e-08  Convergence criterion met
 Total energy in the final basis set =     -152.8764092534
   11    -152.8849263076      2.83e-08  Convergence criterion met
 Total energy in the final basis set =     -152.8813633424
   10    -152.8865239880      7.38e-08  Convergence criterion met
 Total energy in the final basis set =     -152.8828509703
   10    -152.8873103395      9.33e-08  Convergence criterion met
 Total energy in the final basis set =     -152.8835297716
   11    -152.8876206459      1.58e-08  Convergence criterion met
 Total energy in the final basis set =     -152.8837777449
   10    -152.8877658215      9.84e-08  Convergence criterion met
 Total energy in the final basis set =     -152.8838883644
   11    -152.8879099847      1.60e-08  Convergence criterion met
 Total energy in the final basis set =     -152.8840050697
   10    -152.8880387406      9.52e-08  Convergence criterion met
   10    -152.8883042682      5.91e-08  Convergence criterion met
 Total energy in the final basis set =     -152.8844426406
   10    -152.8883115814      5.86e-08  Convergence criterion met
 Total energy in the final basis set =     -152.8844500293
   10    -152.8883199419      5.62e-08  Convergence criterion met
 Total energy in the final basis set =     -152.8844573437
   10    -152.8883273125      5.29e-08  Convergence criterion met
 Total energy in the final basis set =     -152.8844638337
   10    -152.8883371177      5.07e-08  Convergence criterion met
 Total energy in the final basis set =     -152.8844713467
   10    -152.8883420180      4.82e-08  Convergence criterion met
 Total energy in the final basis set =     -152.8844755742

             Standard Nuclear Orientation (Angstroms)
    I     Atom           X                Y                Z
 ----------------------------------------------------------------
    1      H       0.0174884129     1.2400110609     1.0108770123
    2      O      -0.5473847016     0.8562167925     0.3312910626
    3      H      -1.4226274008     1.2156887062     0.5133076320
    4      H       1.1083635998     1.3866437026    -2.4131704394
    5      O       0.2750010745     1.8180293627    -2.2010101898
    6      H       0.0297357151     1.4715295750    -1.3244832777
 ----------------------------------------------------------------

   10    -152.8883427552      4.82e-08  Convergence criterion met
 Total energy in the final basis set =     -152.8844764313
 Final energy is   -152.884476431305
 **  OPTIMIZATION CONVERGED  **

                    Orbital Energies (a.u.)
 --------------------------------------------------------------

 Alpha MOs
 -- Occupied --
-19.3411 -19.3213  -1.1487  -1.1260  -0.6409  -0.6294  -0.5236  -0.4934
 -0.4365  -0.4228

          Ground-State Mulliken Net Atomic Charges

     Atom                 Charge (a.u.)
  ----------------------------------------
      1 H                     0.340223
      2 O                    -0.662573
      3 H                     0.340527
      4 H                     0.329814
      5 O                    -0.729448
      6 H                     0.381457
  ----------------------------------------
  Sum of atomic charges =     0.000000

                    Cartesian Multipole Moments
 -----------------------------------------------------------------
    Charge (ESU x 10^10)
                -0.0000
    Dipole Moment (Debye)
         X       0.4400      Y      -0.2252      Z       3.6569
       Tot       3.6901
    Quadrupole Moments (Debye-Ang)
        XX      -8.6564     XY      -0.9317     YY     -17.8723
        XZ      -3.9540     YZ       9.3979     ZZ     -17.7869

 Total job time:  250.33s(wall), 1772.84s(cpu)
        *  Thank you very much for using Q-Chem.  Have a nice day.  *
