 Q-Chem 5.4, Q-Chem, Inc., Pleasanton, CA (2021)
 Q-Chem 5.4.1 for Intel X86 EM64T Linux

User input:
--------------------------------------------------------------
$molecule
0 2
C         2.6357504276   -1.0143044783   -1.0732865324
O         1.5624479679   -0.1057922124   -1.0397811157
C         3.5468746858   -0.6721397213    0.1160109193
O         2.8564732892   -1.0123859130    1.2758488268
C         4.0068460658    0.7753177431    0.0715267424
C         5.0339231255    1.1364159094    1.1736381246
O         4.4585558983    0.9659007623    2.3855502441
H         3.1933495921   -0.9247107006   -2.0027159778
H         1.0925899059   -0.1691958861   -1.8790766313
H         3.1447300428    1.4300757078    0.1799183236
H         4.4830375056    0.9846882732   -0.8835575054
H         5.8748007296    0.4247166159    1.1269057441
O         2.1950535074   -2.3464199360   -1.0048630096
H         1.7878721215   -2.4837349242   -0.1388150634
O         4.6679521807   -1.5828916389    0.1233722188
O         5.4319142072   -1.4066465783   -1.0692159500
H         3.2913475918   -0.5799501800    2.0273849197
H         6.2063053787   -0.9171635840   -0.7537392997
O         5.5768602483    2.4167130646    0.9688806334
H         4.8527130281    3.0501758770    0.8832890882
$end

$rem
BASIS = 6-311++G(2df,2p)
GUI = 2
JOB_TYPE = Frequency
METHOD = wB97M-V
SOLVENT_METHOD = SMD
SCF_ALGORITHM = DIIS_GDM
MAX_SCF_CYCLES = 400
SCF_CONVERGENCE = 7
THRESH = 12
$end
--------------------------------------------------------------

   24    -684.3260412059      5.10e-08  Convergence criterion met
 Total energy in the final basis set =     -684.3201260169
   21    -684.3260351793      2.76e-08  Convergence criterion met
 Total energy in the final basis set =     -684.3201249278
   21    -684.3260452967      2.79e-08  Convergence criterion met
 Total energy in the final basis set =     -684.3201249037
   21    -684.3260375432      2.78e-08  Convergence criterion met
 Total energy in the final basis set =     -684.3201249018
   21    -684.3260433488      2.76e-08  Convergence criterion met
 Total energy in the final basis set =     -684.3201250442
   21    -684.3260397805      2.79e-08  Convergence criterion met
 Total energy in the final basis set =     -684.3201248711
   21    -684.3260403274      2.77e-08  Convergence criterion met
 Total energy in the final basis set =     -684.3201248520
   21    -684.3260440230      2.78e-08  Convergence criterion met
 Total energy in the final basis set =     -684.3201259823
   21    -684.3260402166      2.66e-08  Convergence criterion met
 Total energy in the final basis set =     -684.3201257812
   21    -684.3260406960      2.82e-08  Convergence criterion met
 Total energy in the final basis set =     -684.3201255318
   21    -684.3260406261      2.77e-08  Convergence criterion met
 Total energy in the final basis set =     -684.3201254120
   21    -684.3260416556      2.74e-08  Convergence criterion met
 Total energy in the final basis set =     -684.3201254876
   21    -684.3260398216      2.84e-08  Convergence criterion met
 Total energy in the final basis set =     -684.3201256118
   21    -684.3260411622      2.74e-08  Convergence criterion met
 Total energy in the final basis set =     -684.3201260109
   21    -684.3260412254      2.78e-08  Convergence criterion met
 Total energy in the final basis set =     -684.3201259984

                    Orbital Energies (a.u.)
 --------------------------------------------------------------

 Alpha MOs
 -- Occupied --
-19.4056 -19.4025 -19.3991 -19.3582 -19.3494 -19.3487 -19.3475 -10.4680
-10.4619 -10.4494 -10.3616  -1.2797  -1.2205  -1.2116  -1.1828  -1.1429
 -1.1382  -1.0403  -0.9098  -0.8381  -0.7629  -0.7388  -0.6927  -0.6614
 -0.6561  -0.6303  -0.6195  -0.6054  -0.5912  -0.5755  -0.5667  -0.5632
 -0.5349  -0.5153  -0.4983  -0.4820  -0.4654  -0.4526  -0.4472  -0.4337
 -0.4315  -0.4219  -0.4140  -0.3994  -0.3875

 Beta MOs
 -- Occupied --
-19.4056 -19.3990 -19.3807 -19.3581 -19.3495 -19.3487 -19.3475 -10.4681
-10.4622 -10.4494 -10.3596  -1.2796  -1.2130  -1.1998  -1.1825  -1.1382
 -1.1135  -1.0402  -0.9050  -0.8334  -0.7539  -0.7365  -0.6924  -0.6556
 -0.6539  -0.6216  -0.6125  -0.5953  -0.5846  -0.5734  -0.5625  -0.5449
 -0.5343  -0.5047  -0.4819  -0.4735  -0.4634  -0.4499  -0.4347  -0.4272
 -0.4167  -0.4109  -0.4006  -0.3899

          Ground-State Mulliken Net Atomic Charges

     Atom                 Charge (a.u.)    Spin (a.u.)
  --------------------------------------------------------
      1 C                    -0.149494      -0.001005
      2 O                    -0.423791      -0.000032
      3 C                     0.175686      -0.005669
      4 O                    -0.390880       0.004694
      5 C                    -0.479924       0.076859
      6 C                    -0.116375       0.010606
      7 O                    -0.172991       0.840843
      8 H                     0.305466       0.000664
      9 H                     0.338459      -0.000144
     10 H                     0.300887      -0.004454
     11 H                     0.297818       0.003283
     12 H                     0.312094       0.076678
     13 O                    -0.458781       0.000473
     14 H                     0.353394       0.000047
     15 O                    -0.160873       0.001029
     16 O                    -0.285813      -0.000581
     17 H                     0.316033      -0.003970
     18 H                     0.338409      -0.000815
     19 O                    -0.444587      -0.000823
     20 H                     0.345264       0.002318
  --------------------------------------------------------
  Sum of atomic charges =     0.000000

                    Cartesian Multipole Moments
 -----------------------------------------------------------------
    Charge (ESU x 10^10)
                 0.0000
    Dipole Moment (Debye)
         X       0.6955      Y       4.1167      Z      -2.0722
       Tot       4.6610
    Quadrupole Moments (Debye-Ang)
        XX     -56.9737     XY      11.6238     YY     -74.5688
        XZ      -6.7548     YZ      -6.6932     ZZ     -65.9742

             Standard Nuclear Orientation (Angstroms)
    I     Atom           X                Y                Z
 ----------------------------------------------------------------
    1      C       2.6357504276    -1.0143044783    -1.0732865324
    2      O       1.5624479679    -0.1057922124    -1.0397811157
    3      C       3.5468746858    -0.6721397213     0.1160109193
    4      O       2.8564732892    -1.0123859130     1.2758488268
    5      C       4.0068460658     0.7753177431     0.0715267424
    6      C       5.0339231255     1.1364159094     1.1736381246
    7      O       4.4585558983     0.9659007623     2.3855502441
    8      H       3.1933495921    -0.9247107006    -2.0027159778
    9      H       1.0925899059    -0.1691958861    -1.8790766313
   10      H       3.1447300428     1.4300757078     0.1799183236
   11      H       4.4830375056     0.9846882732    -0.8835575054
   12      H       5.8748007296     0.4247166159     1.1269057441
   13      O       2.1950535074    -2.3464199360    -1.0048630096
   14      H       1.7878721215    -2.4837349242    -0.1388150634
   15      O       4.6679521807    -1.5828916389     0.1233722188
   16      O       5.4319142072    -1.4066465783    -1.0692159500
   17      H       3.2913475918    -0.5799501800     2.0273849197
   18      H       6.2063053787    -0.9171635840    -0.7537392997
   19      O       5.5768602483     2.4167130646     0.9688806334
   20      H       4.8527130281     3.0501758770     0.8832890882
 ----------------------------------------------------------------

 Frequency:        46.75                  63.78                 112.40
 Force Cnst:      0.0071                 0.0162                 0.0363
 Red. Mass:       5.5319                 6.7623                 4.8794
 IR Intens:        6.851                  1.291                 21.854
 Frequency:       119.42                 146.90                 214.86
 Force Cnst:      0.0425                 0.0554                 0.0333
 Red. Mass:       5.0532                 4.3607                 1.2244
 IR Intens:        4.671                 17.481                142.229
 Frequency:       235.38                 260.71                 261.92
 Force Cnst:      0.1517                 0.1289                 0.0605
 Red. Mass:       4.6464                 3.2189                 1.4962
 IR Intens:       27.082                 30.148                159.249
 Frequency:       285.66                 302.31                 324.39
 Force Cnst:      0.0820                 0.1431                 0.2789
 Red. Mass:       1.7057                 2.6579                 4.4982
 IR Intens:      192.807                 48.870                 33.757
 Frequency:       345.85                 362.40                 395.16
 Force Cnst:      0.1291                 0.2215                 0.2052
 Red. Mass:       1.8314                 2.8621                 2.2304
 IR Intens:       15.748                 89.842                 98.738
 Frequency:       431.90                 501.98                 518.42
 Force Cnst:      0.3389                 0.3399                 0.2579
 Red. Mass:       3.0833                 2.2896                 1.6287
 IR Intens:       85.234                 22.968                142.333
 Frequency:       536.25                 574.46                 614.21
 Force Cnst:      0.7313                 1.1846                 1.2608
 Red. Mass:       4.3161                 6.0923                 5.6724
 IR Intens:       56.074                117.285                 17.758
 Frequency:       724.76                 821.78                 848.62
 Force Cnst:      1.1555                 1.4104                 0.9775
 Red. Mass:       3.7334                 3.5448                 2.3038
 IR Intens:       63.272                 48.758                 20.715
 Frequency:       911.83                 953.92                1011.91
 Force Cnst:      2.4919                 2.4778                 2.9753
 Red. Mass:       5.0869                 4.6217                 4.9317
 IR Intens:       17.882                 39.814                 85.824
 Frequency:      1042.89                1066.71                1150.32
 Force Cnst:      2.7047                 1.5315                 1.0539
 Red. Mass:       4.2208                 2.2844                 1.3519
 IR Intens:       32.797                161.967                121.298
 Frequency:      1173.90                1188.12                1212.82
 Force Cnst:      1.5197                 1.1117                 1.1318
 Red. Mass:       1.8717                 1.3366                 1.3059
 IR Intens:      140.405                219.200                 48.158
 Frequency:      1239.92                1254.61                1272.28
 Force Cnst:      1.1964                 1.6173                 3.1179
 Red. Mass:       1.3208                 1.7439                 3.2692
 IR Intens:       99.163                224.118                297.473
 Frequency:      1301.68                1333.35                1363.69
 Force Cnst:      2.6821                 2.3491                 1.7789
 Red. Mass:       2.6866                 2.2427                 1.6235
 IR Intens:      141.063                 63.507                 21.917
 Frequency:      1387.59                1400.81                1438.08
 Force Cnst:      1.9516                 1.6189                 1.5675
 Red. Mass:       1.7204                 1.4003                 1.2865
 IR Intens:      253.147                 29.422                 56.715
 Frequency:      1444.47                1462.89                1486.89
 Force Cnst:      1.3983                 1.3898                 2.5401
 Red. Mass:       1.1374                 1.1023                 1.9500
 IR Intens:       53.694                 76.686                 38.767
 Frequency:      2962.58                3108.06                3133.10
 Force Cnst:      5.5447                 6.0309                 6.2941
 Red. Mass:       1.0722                 1.0596                 1.0883
 IR Intens:       24.801                  2.774                 23.476
 Frequency:      3163.37                3697.60                3760.36
 Force Cnst:      6.5185                 8.5893                 8.9018
 Red. Mass:       1.1056                 1.0663                 1.0685
 IR Intens:        0.819                339.860                139.356
 Frequency:      3781.02                3797.78                3821.88
 Force Cnst:      8.9764                 9.0612                 9.1820
 Red. Mass:       1.0657                 1.0663                 1.0669
 IR Intens:      126.450                130.256                145.824

 STANDARD THERMODYNAMIC QUANTITIES AT   298.15 K  AND     1.00 ATM

   This Molecule has  0 Imaginary Frequencies
   Zero point vibrational energy:       94.887 kcal/mol

   Atom    1 Element C  Has Mass   12.00000
   Atom    2 Element O  Has Mass   15.99491
   Atom    3 Element C  Has Mass   12.00000
   Atom    4 Element O  Has Mass   15.99491
   Atom    5 Element C  Has Mass   12.00000
   Atom    6 Element C  Has Mass   12.00000
   Atom    7 Element O  Has Mass   15.99491
   Atom    8 Element H  Has Mass    1.00783
   Atom    9 Element H  Has Mass    1.00783
   Atom   10 Element H  Has Mass    1.00783
   Atom   11 Element H  Has Mass    1.00783
   Atom   12 Element H  Has Mass    1.00783
   Atom   13 Element O  Has Mass   15.99491
   Atom   14 Element H  Has Mass    1.00783
   Atom   15 Element O  Has Mass   15.99491
   Atom   16 Element O  Has Mass   15.99491
   Atom   17 Element H  Has Mass    1.00783
   Atom   18 Element H  Has Mass    1.00783
   Atom   19 Element O  Has Mass   15.99491
   Atom   20 Element H  Has Mass    1.00783
   Molecular Mass:   169.034840 amu
   Principal axes and moments of inertia in amu*Bohr^2:
                             1           2           3
    Eigenvalues --     1067.63497  2436.88259  2684.69661
          X               0.56808     0.82087    -0.05879
          Y               0.66715    -0.50118    -0.55111
          Z               0.48186    -0.27386     0.83236
   Rotational Symmetry Number is   1
   The Molecule is an Asymmetric Top
   Translational Enthalpy:        0.889 kcal/mol
   Rotational Enthalpy:           0.889 kcal/mol
   Vibrational Enthalpy:        101.048 kcal/mol
   gas constant (RT):             0.592 kcal/mol
   Translational Entropy:        41.283  cal/mol.K
   Rotational Entropy:           30.325  cal/mol.K
   Vibrational Entropy:          38.131  cal/mol.K

   Total Enthalpy:              103.418 kcal/mol
   Total Entropy:               109.739  cal/mol.K
 Total job time:  32182.73s(wall), 455886.23s(cpu)
        *  Thank you very much for using Q-Chem.  Have a nice day.  *
