 Q-Chem 5.4, Q-Chem, Inc., Pleasanton, CA (2021)
 Q-Chem 5.4.1 for Intel X86 EM64T Linux

User input:
--------------------------------------------------------------
$molecule
0 2
C         2.6308920114   -1.0206024924   -1.0856800626
O         1.5734276428   -0.0907830768   -1.0590214346
C         3.5486832893   -0.6665804010    0.0952080851
O         2.8467830273   -0.9954604016    1.2555835665
C         4.0205067642    0.7810642236    0.0534071858
C         5.0345056775    1.1335730650    1.1740587940
O         4.4282985837    0.9457500820    2.3793946375
H         3.1859502037   -0.9677724760   -2.0253766442
H         1.0592878905   -0.2260873660   -1.8721687895
H         3.1563318636    1.4438486131    0.1466673676
H         4.5153836642    0.9888006215   -0.8981900056
H         5.8782960919    0.4214690032    1.1319368923
O         2.1748445535   -2.3456306162   -0.9728124195
H         1.8037672830   -2.4292295480   -0.0754054414
O         4.6663339048   -1.5826798989    0.1127837089
O         5.4321021246   -1.3960378556   -1.0885928094
H         3.3142158808   -0.5725319005    2.0040307336
H         6.2107683492   -0.9136184689   -0.7517239078
O         5.5800676907    2.4153373535    0.9945388656
H         4.8389510030    3.0458397402    0.9686363775
$end

$rem
BASIS = 6-311++G(2df,2p)
GUI = 2
JOB_TYPE = Optimization
METHOD = wB97M-V
SCF_ALGORITHM = DIIS_GDM
MAX_SCF_CYCLES = 400
GEOM_OPT_MAX_CYCLES = 150
SCF_CONVERGENCE = 7
THRESH = 12
Solvent_method = SMD
$end
--------------------------------------------------------------

   24    -684.3250384557      5.31e-08  Convergence criterion met
 Total energy in the final basis set =     -684.3193070516
   21    -684.3258780698      4.27e-08  Convergence criterion met
 Total energy in the final basis set =     -684.3199908569
   21    -684.3255035858      3.23e-08  Convergence criterion met
 Total energy in the final basis set =     -684.3196778652
   21    -684.3257874607      4.43e-08  Convergence criterion met
 Total energy in the final basis set =     -684.3198853139
   21    -684.3256802389      3.73e-08  Convergence criterion met
 Total energy in the final basis set =     -684.3197409904
   20    -684.3260175723      9.69e-08  Convergence criterion met
 Total energy in the final basis set =     -684.3201080542
   21    -684.3260294474      2.80e-08  Convergence criterion met
 Total energy in the final basis set =     -684.3201187202
   21    -684.3260323863      2.95e-08  Convergence criterion met
 Total energy in the final basis set =     -684.3201216473
   21    -684.3260386473      2.81e-08  Convergence criterion met
 Total energy in the final basis set =     -684.3201252211

             Standard Nuclear Orientation (Angstroms)
    I     Atom           X                Y                Z
 ----------------------------------------------------------------
    1      C       2.6357504276    -1.0143044783    -1.0732865324
    2      O       1.5624479679    -0.1057922124    -1.0397811157
    3      C       3.5468746858    -0.6721397213     0.1160109193
    4      O       2.8564732892    -1.0123859130     1.2758488268
    5      C       4.0068460658     0.7753177431     0.0715267424
    6      C       5.0339231255     1.1364159094     1.1736381246
    7      O       4.4585558983     0.9659007623     2.3855502441
    8      H       3.1933495921    -0.9247107006    -2.0027159778
    9      H       1.0925899059    -0.1691958861    -1.8790766313
   10      H       3.1447300428     1.4300757078     0.1799183236
   11      H       4.4830375056     0.9846882732    -0.8835575054
   12      H       5.8748007296     0.4247166159     1.1269057441
   13      O       2.1950535074    -2.3464199360    -1.0048630096
   14      H       1.7878721215    -2.4837349242    -0.1388150634
   15      O       4.6679521807    -1.5828916389     0.1233722188
   16      O       5.4319142072    -1.4066465783    -1.0692159500
   17      H       3.2913475918    -0.5799501800     2.0273849197
   18      H       6.2063053787    -0.9171635840    -0.7537392997
   19      O       5.5768602483     2.4167130646     0.9688806334
   20      H       4.8527130281     3.0501758770     0.8832890882
 ----------------------------------------------------------------

   21    -684.3260412054      3.03e-08  Convergence criterion met
 Total energy in the final basis set =     -684.3201260164
 Final energy is   -684.320126016402
 **  OPTIMIZATION CONVERGED  **

                    Orbital Energies (a.u.)
 --------------------------------------------------------------

 Alpha MOs
 -- Occupied --
-19.4056 -19.4025 -19.3991 -19.3582 -19.3494 -19.3487 -19.3475 -10.4680
-10.4619 -10.4494 -10.3616  -1.2797  -1.2205  -1.2116  -1.1828  -1.1429
 -1.1382  -1.0403  -0.9098  -0.8381  -0.7629  -0.7388  -0.6927  -0.6614
 -0.6561  -0.6303  -0.6195  -0.6053  -0.5912  -0.5755  -0.5667  -0.5632
 -0.5349  -0.5153  -0.4983  -0.4820  -0.4654  -0.4526  -0.4473  -0.4337
 -0.4315  -0.4219  -0.4140  -0.3994  -0.3875

 Beta MOs
 -- Occupied --
-19.4056 -19.3990 -19.3807 -19.3581 -19.3495 -19.3487 -19.3475 -10.4681
-10.4622 -10.4494 -10.3596  -1.2796  -1.2130  -1.1998  -1.1825  -1.1382
 -1.1135  -1.0402  -0.9050  -0.8334  -0.7539  -0.7365  -0.6924  -0.6556
 -0.6539  -0.6216  -0.6125  -0.5952  -0.5846  -0.5734  -0.5625  -0.5449
 -0.5343  -0.5047  -0.4819  -0.4735  -0.4634  -0.4499  -0.4347  -0.4272
 -0.4167  -0.4109  -0.4006  -0.3899

          Ground-State Mulliken Net Atomic Charges

     Atom                 Charge (a.u.)    Spin (a.u.)
  --------------------------------------------------------
      1 C                    -0.149495      -0.001004
      2 O                    -0.423794      -0.000031
      3 C                     0.175627      -0.005669
      4 O                    -0.390871       0.004693
      5 C                    -0.479900       0.076874
      6 C                    -0.116327       0.010600
      7 O                    -0.173003       0.840826
      8 H                     0.305465       0.000664
      9 H                     0.338460      -0.000144
     10 H                     0.300868      -0.004454
     11 H                     0.297812       0.003280
     12 H                     0.312093       0.076682
     13 O                    -0.458778       0.000473
     14 H                     0.353393       0.000047
     15 O                    -0.160874       0.001030
     16 O                    -0.285812      -0.000582
     17 H                     0.316027      -0.003970
     18 H                     0.338407      -0.000815
     19 O                    -0.444550      -0.000819
     20 H                     0.345253       0.002319
  --------------------------------------------------------
  Sum of atomic charges =     0.000000

                    Cartesian Multipole Moments
 -----------------------------------------------------------------
    Charge (ESU x 10^10)
                 0.0000
    Dipole Moment (Debye)
         X       0.6956      Y       4.1168      Z      -2.0700
       Tot       4.6601
    Quadrupole Moments (Debye-Ang)
        XX     -56.9727     XY      11.6241     YY     -74.5684
        XZ      -6.7448     YZ      -6.6862     ZZ     -65.9706

 Total job time:  2482.94s(wall), 35481.98s(cpu)
        *  Thank you very much for using Q-Chem.  Have a nice day.  *
